Position Data

4000 atoms
400 bonds

2 atom types
1 bond types

0.00 17.00 xlo xhi
0.00 17.00 ylo yhi
0.00 17.00 zlo zhi

Atoms

1 0 1 0.0 0.0 0.0
2 0 2 0.0 0.85 0.85
3 1 1 0.85 0.0 0.85
4 1 2 0.85 0.85 0.0
5 2 1 0.0 0.0 1.7
6 2 2 0.0 0.85 2.55
7 3 1 0.85 0.0 2.55
8 3 2 0.85 0.85 1.7
9 4 1 0.0 0.0 3.4
10 4 2 0.0 0.85 4.25
11 5 1 0.85 0.0 4.25
12 5 2 0.85 0.85 3.4
13 6 1 0.0 0.0 5.1
14 6 2 0.0 0.85 5.949999999999999
15 7 1 0.85 0.0 5.949999999999999
16 7 2 0.85 0.85 5.1
17 8 1 0.0 0.0 6.8
18 8 2 0.0 0.85 7.6499999999999995
19 9 1 0.85 0.0 7.6499999999999995
20 9 2 0.85 0.85 6.8
21 10 1 0.0 0.0 8.5
22 10 2 0.0 0.85 9.35
23 11 1 0.85 0.0 9.35
24 11 2 0.85 0.85 8.5
25 12 1 0.0 0.0 10.2
26 12 2 0.0 0.85 11.049999999999999
27 13 1 0.85 0.0 11.049999999999999
28 13 2 0.85 0.85 10.2
29 14 1 0.0 0.0 11.9
30 14 2 0.0 0.85 12.75
31 15 1 0.85 0.0 12.75
32 15 2 0.85 0.85 11.9
33 16 1 0.0 0.0 13.6
34 16 2 0.0 0.85 14.45
35 17 1 0.85 0.0 14.45
36 17 2 0.85 0.85 13.6
37 18 1 0.0 0.0 15.299999999999999
38 18 2 0.0 0.85 16.15
39 19 1 0.85 0.0 16.15
40 19 2 0.85 0.85 15.299999999999999
41 20 1 0.0 1.7 0.0
42 20 2 0.0 2.55 0.85
43 21 1 0.85 1.7 0.85
44 21 2 0.85 2.55 0.0
45 22 1 0.0 1.7 1.7
46 22 2 0.0 2.55 2.55
47 23 1 0.85 1.7 2.55
48 23 2 0.85 2.55 1.7
49 24 1 0.0 1.7 3.4
50 24 2 0.0 2.55 4.25
51 25 1 0.85 1.7 4.25
52 25 2 0.85 2.55 3.4
53 26 1 0.0 1.7 5.1
54 26 2 0.0 2.55 5.949999999999999
55 27 1 0.85 1.7 5.949999999999999
56 27 2 0.85 2.55 5.1
57 28 1 0.0 1.7 6.8
58 28 2 0.0 2.55 7.6499999999999995
59 29 1 0.85 1.7 7.6499999999999995
60 29 2 0.85 2.55 6.8
61 30 1 0.0 1.7 8.5
62 30 2 0.0 2.55 9.35
63 31 1 0.85 1.7 9.35
64 31 2 0.85 2.55 8.5
65 32 1 0.0 1.7 10.2
66 32 2 0.0 2.55 11.049999999999999
67 33 1 0.85 1.7 11.049999999999999
68 33 2 0.85 2.55 10.2
69 34 1 0.0 1.7 11.9
70 34 2 0.0 2.55 12.75
71 35 1 0.85 1.7 12.75
72 35 2 0.85 2.55 11.9
73 36 1 0.0 1.7 13.6
74 36 2 0.0 2.55 14.45
75 37 1 0.85 1.7 14.45
76 37 2 0.85 2.55 13.6
77 38 1 0.0 1.7 15.299999999999999
78 38 2 0.0 2.55 16.15
79 39 1 0.85 1.7 16.15
80 39 2 0.85 2.55 15.299999999999999
81 40 1 0.0 3.4 0.0
82 40 2 0.0 4.25 0.85
83 41 1 0.85 3.4 0.85
84 41 2 0.85 4.25 0.0
85 42 1 0.0 3.4 1.7
86 42 2 0.0 4.25 2.55
87 43 1 0.85 3.4 2.55
88 43 2 0.85 4.25 1.7
89 44 1 0.0 3.4 3.4
90 44 2 0.0 4.25 4.25
91 45 1 0.85 3.4 4.25
92 45 2 0.85 4.25 3.4
93 46 1 0.0 3.4 5.1
94 46 2 0.0 4.25 5.949999999999999
95 47 1 0.85 3.4 5.949999999999999
96 47 2 0.85 4.25 5.1
97 48 1 0.0 3.4 6.8
98 48 2 0.0 4.25 7.6499999999999995
99 49 1 0.85 3.4 7.6499999999999995
100 49 2 0.85 4.25 6.8
101 50 1 0.0 3.4 8.5
102 50 2 0.0 4.25 9.35
103 51 1 0.85 3.4 9.35
104 51 2 0.85 4.25 8.5
105 52 1 0.0 3.4 10.2
106 52 2 0.0 4.25 11.049999999999999
107 53 1 0.85 3.4 11.049999999999999
108 53 2 0.85 4.25 10.2
109 54 1 0.0 3.4 11.9
110 54 2 0.0 4.25 12.75
111 55 1 0.85 3.4 12.75
112 55 2 0.85 4.25 11.9
113 56 1 0.0 3.4 13.6
114 56 2 0.0 4.25 14.45
115 57 1 0.85 3.4 14.45
116 57 2 0.85 4.25 13.6
117 58 1 0.0 3.4 15.299999999999999
118 58 2 0.0 4.25 16.15
119 59 1 0.85 3.4 16.15
120 59 2 0.85 4.25 15.299999999999999
121 60 1 0.0 5.1 0.0
122 60 2 0.0 5.949999999999999 0.85
123 61 1 0.85 5.1 0.85
124 61 2 0.85 5.949999999999999 0.0
125 62 1 0.0 5.1 1.7
126 62 2 0.0 5.949999999999999 2.55
127 63 1 0.85 5.1 2.55
128 63 2 0.85 5.949999999999999 1.7
129 64 1 0.0 5.1 3.4
130 64 2 0.0 5.949999999999999 4.25
131 65 1 0.85 5.1 4.25
132 65 2 0.85 5.949999999999999 3.4
133 66 1 0.0 5.1 5.1
134 66 2 0.0 5.949999999999999 5.949999999999999
135 67 1 0.85 5.1 5.949999999999999
136 67 2 0.85 5.949999999999999 5.1
137 68 1 0.0 5.1 6.8
138 68 2 0.0 5.949999999999999 7.6499999999999995
139 69 1 0.85 5.1 7.6499999999999995
140 69 2 0.85 5.949999999999999 6.8
141 70 1 0.0 5.1 8.5
142 70 2 0.0 5.949999999999999 9.35
143 71 1 0.85 5.1 9.35
144 71 2 0.85 5.949999999999999 8.5
145 72 1 0.0 5.1 10.2
146 72 2 0.0 5.949999999999999 11.049999999999999
147 73 1 0.85 5.1 11.049999999999999
148 73 2 0.85 5.949999999999999 10.2
149 74 1 0.0 5.1 11.9
150 74 2 0.0 5.949999999999999 12.75
151 75 1 0.85 5.1 12.75
152 75 2 0.85 5.949999999999999 11.9
153 76 1 0.0 5.1 13.6
154 76 2 0.0 5.949999999999999 14.45
155 77 1 0.85 5.1 14.45
156 77 2 0.85 5.949999999999999 13.6
157 78 1 0.0 5.1 15.299999999999999
158 78 2 0.0 5.949999999999999 16.15
159 79 1 0.85 5.1 16.15
160 79 2 0.85 5.949999999999999 15.299999999999999
161 80 1 0.0 6.8 0.0
162 80 2 0.0 7.6499999999999995 0.85
163 81 1 0.85 6.8 0.85
164 81 2 0.85 7.6499999999999995 0.0
165 82 1 0.0 6.8 1.7
166 82 2 0.0 7.6499999999999995 2.55
167 83 1 0.85 6.8 2.55
168 83 2 0.85 7.6499999999999995 1.7
169 84 1 0.0 6.8 3.4
170 84 2 0.0 7.6499999999999995 4.25
171 85 1 0.85 6.8 4.25
172 85 2 0.85 7.6499999999999995 3.4
173 86 1 0.0 6.8 5.1
174 86 2 0.0 7.6499999999999995 5.949999999999999
175 87 1 0.85 6.8 5.949999999999999
176 87 2 0.85 7.6499999999999995 5.1
177 88 1 0.0 6.8 6.8
178 88 2 0.0 7.6499999999999995 7.6499999999999995
179 89 1 0.85 6.8 7.6499999999999995
180 89 2 0.85 7.6499999999999995 6.8
181 90 1 0.0 6.8 8.5
182 90 2 0.0 7.6499999999999995 9.35
183 91 1 0.85 6.8 9.35
184 91 2 0.85 7.6499999999999995 8.5
185 92 1 0.0 6.8 10.2
186 92 2 0.0 7.6499999999999995 11.049999999999999
187 93 1 0.85 6.8 11.049999999999999
188 93 2 0.85 7.6499999999999995 10.2
189 94 1 0.0 6.8 11.9
190 94 2 0.0 7.6499999999999995 12.75
191 95 1 0.85 6.8 12.75
192 95 2 0.85 7.6499999999999995 11.9
193 96 1 0.0 6.8 13.6
194 96 2 0.0 7.6499999999999995 14.45
195 97 1 0.85 6.8 14.45
196 97 2 0.85 7.6499999999999995 13.6
197 98 1 0.0 6.8 15.299999999999999
198 98 2 0.0 7.6499999999999995 16.15
199 99 1 0.85 6.8 16.15
200 99 2 0.85 7.6499999999999995 15.299999999999999
201 100 1 0.0 8.5 0.0
202 100 2 0.0 9.35 0.85
203 101 1 0.85 8.5 0.85
204 101 2 0.85 9.35 0.0
205 102 1 0.0 8.5 1.7
206 102 2 0.0 9.35 2.55
207 103 1 0.85 8.5 2.55
208 103 2 0.85 9.35 1.7
209 104 1 0.0 8.5 3.4
210 104 2 0.0 9.35 4.25
211 105 1 0.85 8.5 4.25
212 105 2 0.85 9.35 3.4
213 106 1 0.0 8.5 5.1
214 106 2 0.0 9.35 5.949999999999999
215 107 1 0.85 8.5 5.949999999999999
216 107 2 0.85 9.35 5.1
217 108 1 0.0 8.5 6.8
218 108 2 0.0 9.35 7.6499999999999995
219 109 1 0.85 8.5 7.6499999999999995
220 109 2 0.85 9.35 6.8
221 110 1 0.0 8.5 8.5
222 110 2 0.0 9.35 9.35
223 111 1 0.85 8.5 9.35
224 111 2 0.85 9.35 8.5
225 112 1 0.0 8.5 10.2
226 112 2 0.0 9.35 11.049999999999999
227 113 1 0.85 8.5 11.049999999999999
228 113 2 0.85 9.35 10.2
229 114 1 0.0 8.5 11.9
230 114 2 0.0 9.35 12.75
231 115 1 0.85 8.5 12.75
232 115 2 0.85 9.35 11.9
233 116 1 0.0 8.5 13.6
234 116 2 0.0 9.35 14.45
235 117 1 0.85 8.5 14.45
236 117 2 0.85 9.35 13.6
237 118 1 0.0 8.5 15.299999999999999
238 118 2 0.0 9.35 16.15
239 119 1 0.85 8.5 16.15
240 119 2 0.85 9.35 15.299999999999999
241 120 1 0.0 10.2 0.0
242 120 2 0.0 11.049999999999999 0.85
243 121 1 0.85 10.2 0.85
244 121 2 0.85 11.049999999999999 0.0
245 122 1 0.0 10.2 1.7
246 122 2 0.0 11.049999999999999 2.55
247 123 1 0.85 10.2 2.55
248 123 2 0.85 11.049999999999999 1.7
249 124 1 0.0 10.2 3.4
250 124 2 0.0 11.049999999999999 4.25
251 125 1 0.85 10.2 4.25
252 125 2 0.85 11.049999999999999 3.4
253 126 1 0.0 10.2 5.1
254 126 2 0.0 11.049999999999999 5.949999999999999
255 127 1 0.85 10.2 5.949999999999999
256 127 2 0.85 11.049999999999999 5.1
257 128 1 0.0 10.2 6.8
258 128 2 0.0 11.049999999999999 7.6499999999999995
259 129 1 0.85 10.2 7.6499999999999995
260 129 2 0.85 11.049999999999999 6.8
261 130 1 0.0 10.2 8.5
262 130 2 0.0 11.049999999999999 9.35
263 131 1 0.85 10.2 9.35
264 131 2 0.85 11.049999999999999 8.5
265 132 1 0.0 10.2 10.2
266 132 2 0.0 11.049999999999999 11.049999999999999
267 133 1 0.85 10.2 11.049999999999999
268 133 2 0.85 11.049999999999999 10.2
269 134 1 0.0 10.2 11.9
270 134 2 0.0 11.049999999999999 12.75
271 135 1 0.85 10.2 12.75
272 135 2 0.85 11.049999999999999 11.9
273 136 1 0.0 10.2 13.6
274 136 2 0.0 11.049999999999999 14.45
275 137 1 0.85 10.2 14.45
276 137 2 0.85 11.049999999999999 13.6
277 138 1 0.0 10.2 15.299999999999999
278 138 2 0.0 11.049999999999999 16.15
279 139 1 0.85 10.2 16.15
280 139 2 0.85 11.049999999999999 15.299999999999999
281 140 1 0.0 11.9 0.0
282 140 2 0.0 12.75 0.85
283 141 1 0.85 11.9 0.85
284 141 2 0.85 12.75 0.0
285 142 1 0.0 11.9 1.7
286 142 2 0.0 12.75 2.55
287 143 1 0.85 11.9 2.55
288 143 2 0.85 12.75 1.7
289 144 1 0.0 11.9 3.4
290 144 2 0.0 12.75 4.25
291 145 1 0.85 11.9 4.25
292 145 2 0.85 12.75 3.4
293 146 1 0.0 11.9 5.1
294 146 2 0.0 12.75 5.949999999999999
295 147 1 0.85 11.9 5.949999999999999
296 147 2 0.85 12.75 5.1
297 148 1 0.0 11.9 6.8
298 148 2 0.0 12.75 7.6499999999999995
299 149 1 0.85 11.9 7.6499999999999995
300 149 2 0.85 12.75 6.8
301 150 1 0.0 11.9 8.5
302 150 2 0.0 12.75 9.35
303 151 1 0.85 11.9 9.35
304 151 2 0.85 12.75 8.5
305 152 1 0.0 11.9 10.2
306 152 2 0.0 12.75 11.049999999999999
307 153 1 0.85 11.9 11.049999999999999
308 153 2 0.85 12.75 10.2
309 154 1 0.0 11.9 11.9
310 154 2 0.0 12.75 12.75
311 155 1 0.85 11.9 12.75
312 155 2 0.85 12.75 11.9
313 156 1 0.0 11.9 13.6
314 156 2 0.0 12.75 14.45
315 157 1 0.85 11.9 14.45
316 157 2 0.85 12.75 13.6
317 158 1 0.0 11.9 15.299999999999999
318 158 2 0.0 12.75 16.15
319 159 1 0.85 11.9 16.15
320 159 2 0.85 12.75 15.299999999999999
321 160 1 0.0 13.6 0.0
322 160 2 0.0 14.45 0.85
323 161 1 0.85 13.6 0.85
324 161 2 0.85 14.45 0.0
325 162 1 0.0 13.6 1.7
326 162 2 0.0 14.45 2.55
327 163 1 0.85 13.6 2.55
328 163 2 0.85 14.45 1.7
329 164 1 0.0 13.6 3.4
330 164 2 0.0 14.45 4.25
331 165 1 0.85 13.6 4.25
332 165 2 0.85 14.45 3.4
333 166 1 0.0 13.6 5.1
334 166 2 0.0 14.45 5.949999999999999
335 167 1 0.85 13.6 5.949999999999999
336 167 2 0.85 14.45 5.1
337 168 1 0.0 13.6 6.8
338 168 2 0.0 14.45 7.6499999999999995
339 169 1 0.85 13.6 7.6499999999999995
340 169 2 0.85 14.45 6.8
341 170 1 0.0 13.6 8.5
342 170 2 0.0 14.45 9.35
343 171 1 0.85 13.6 9.35
344 171 2 0.85 14.45 8.5
345 172 1 0.0 13.6 10.2
346 172 2 0.0 14.45 11.049999999999999
347 173 1 0.85 13.6 11.049999999999999
348 173 2 0.85 14.45 10.2
349 174 1 0.0 13.6 11.9
350 174 2 0.0 14.45 12.75
351 175 1 0.85 13.6 12.75
352 175 2 0.85 14.45 11.9
353 176 1 0.0 13.6 13.6
354 176 2 0.0 14.45 14.45
355 177 1 0.85 13.6 14.45
356 177 2 0.85 14.45 13.6
357 178 1 0.0 13.6 15.299999999999999
358 178 2 0.0 14.45 16.15
359 179 1 0.85 13.6 16.15
360 179 2 0.85 14.45 15.299999999999999
361 180 1 0.0 15.299999999999999 0.0
362 180 2 0.0 16.15 0.85
363 181 1 0.85 15.299999999999999 0.85
364 181 2 0.85 16.15 0.0
365 182 1 0.0 15.299999999999999 1.7
366 182 2 0.0 16.15 2.55
367 183 1 0.85 15.299999999999999 2.55
368 183 2 0.85 16.15 1.7
369 184 1 0.0 15.299999999999999 3.4
370 184 2 0.0 16.15 4.25
371 185 1 0.85 15.299999999999999 4.25
372 185 2 0.85 16.15 3.4
373 186 1 0.0 15.299999999999999 5.1
374 186 2 0.0 16.15 5.949999999999999
375 187 1 0.85 15.299999999999999 5.949999999999999
376 187 2 0.85 16.15 5.1
377 188 1 0.0 15.299999999999999 6.8
378 188 2 0.0 16.15 7.6499999999999995
379 189 1 0.85 15.299999999999999 7.6499999999999995
380 189 2 0.85 16.15 6.8
381 190 1 0.0 15.299999999999999 8.5
382 190 2 0.0 16.15 9.35
383 191 1 0.85 15.299999999999999 9.35
384 191 2 0.85 16.15 8.5
385 192 1 0.0 15.299999999999999 10.2
386 192 2 0.0 16.15 11.049999999999999
387 193 1 0.85 15.299999999999999 11.049999999999999
388 193 2 0.85 16.15 10.2
389 194 1 0.0 15.299999999999999 11.9
390 194 2 0.0 16.15 12.75
391 195 1 0.85 15.299999999999999 12.75
392 195 2 0.85 16.15 11.9
393 196 1 0.0 15.299999999999999 13.6
394 196 2 0.0 16.15 14.45
395 197 1 0.85 15.299999999999999 14.45
396 197 2 0.85 16.15 13.6
397 198 1 0.0 15.299999999999999 15.299999999999999
398 198 2 0.0 16.15 16.15
399 199 1 0.85 15.299999999999999 16.15
400 199 2 0.85 16.15 15.299999999999999
401 200 1 1.7 0.0 0.0
402 200 2 1.7 0.85 0.85
403 201 1 2.55 0.0 0.85
404 201 2 2.55 0.85 0.0
405 202 1 1.7 0.0 1.7
406 202 2 1.7 0.85 2.55
407 203 1 2.55 0.0 2.55
408 203 2 2.55 0.85 1.7
409 204 1 1.7 0.0 3.4
410 204 2 1.7 0.85 4.25
411 205 1 2.55 0.0 4.25
412 205 2 2.55 0.85 3.4
413 206 1 1.7 0.0 5.1
414 206 2 1.7 0.85 5.949999999999999
415 207 1 2.55 0.0 5.949999999999999
416 207 2 2.55 0.85 5.1
417 208 1 1.7 0.0 6.8
418 208 2 1.7 0.85 7.6499999999999995
419 209 1 2.55 0.0 7.6499999999999995
420 209 2 2.55 0.85 6.8
421 210 1 1.7 0.0 8.5
422 210 2 1.7 0.85 9.35
423 211 1 2.55 0.0 9.35
424 211 2 2.55 0.85 8.5
425 212 1 1.7 0.0 10.2
426 212 2 1.7 0.85 11.049999999999999
427 213 1 2.55 0.0 11.049999999999999
428 213 2 2.55 0.85 10.2
429 214 1 1.7 0.0 11.9
430 214 2 1.7 0.85 12.75
431 215 1 2.55 0.0 12.75
432 215 2 2.55 0.85 11.9
433 216 1 1.7 0.0 13.6
434 216 2 1.7 0.85 14.45
435 217 1 2.55 0.0 14.45
436 217 2 2.55 0.85 13.6
437 218 1 1.7 0.0 15.299999999999999
438 218 2 1.7 0.85 16.15
439 219 1 2.55 0.0 16.15
440 219 2 2.55 0.85 15.299999999999999
441 220 1 1.7 1.7 0.0
442 220 2 1.7 2.55 0.85
443 221 1 2.55 1.7 0.85
444 221 2 2.55 2.55 0.0
445 222 1 1.7 1.7 1.7
446 222 2 1.7 2.55 2.55
447 223 1 2.55 1.7 2.55
448 223 2 2.55 2.55 1.7
449 224 1 1.7 1.7 3.4
450 224 2 1.7 2.55 4.25
451 225 1 2.55 1.7 4.25
452 225 2 2.55 2.55 3.4
453 226 1 1.7 1.7 5.1
454 226 2 1.7 2.55 5.949999999999999
455 227 1 2.55 1.7 5.949999999999999
456 227 2 2.55 2.55 5.1
457 228 1 1.7 1.7 6.8
458 228 2 1.7 2.55 7.6499999999999995
459 229 1 2.55 1.7 7.6499999999999995
460 229 2 2.55 2.55 6.8
461 230 1 1.7 1.7 8.5
462 230 2 1.7 2.55 9.35
463 231 1 2.55 1.7 9.35
464 231 2 2.55 2.55 8.5
465 232 1 1.7 1.7 10.2
466 232 2 1.7 2.55 11.049999999999999
467 233 1 2.55 1.7 11.049999999999999
468 233 2 2.55 2.55 10.2
469 234 1 1.7 1.7 11.9
470 234 2 1.7 2.55 12.75
471 235 1 2.55 1.7 12.75
472 235 2 2.55 2.55 11.9
473 236 1 1.7 1.7 13.6
474 236 2 1.7 2.55 14.45
475 237 1 2.55 1.7 14.45
476 237 2 2.55 2.55 13.6
477 238 1 1.7 1.7 15.299999999999999
478 238 2 1.7 2.55 16.15
479 239 1 2.55 1.7 16.15
480 239 2 2.55 2.55 15.299999999999999
481 240 1 1.7 3.4 0.0
482 240 2 1.7 4.25 0.85
483 241 1 2.55 3.4 0.85
484 241 2 2.55 4.25 0.0
485 242 1 1.7 3.4 1.7
486 242 2 1.7 4.25 2.55
487 243 1 2.55 3.4 2.55
488 243 2 2.55 4.25 1.7
489 244 1 1.7 3.4 3.4
490 244 2 1.7 4.25 4.25
491 245 1 2.55 3.4 4.25
492 245 2 2.55 4.25 3.4
493 246 1 1.7 3.4 5.1
494 246 2 1.7 4.25 5.949999999999999
495 247 1 2.55 3.4 5.949999999999999
496 247 2 2.55 4.25 5.1
497 248 1 1.7 3.4 6.8
498 248 2 1.7 4.25 7.6499999999999995
499 249 1 2.55 3.4 7.6499999999999995
500 249 2 2.55 4.25 6.8
501 250 1 1.7 3.4 8.5
502 250 2 1.7 4.25 9.35
503 251 1 2.55 3.4 9.35
504 251 2 2.55 4.25 8.5
505 252 1 1.7 3.4 10.2
506 252 2 1.7 4.25 11.049999999999999
507 253 1 2.55 3.4 11.049999999999999
508 253 2 2.55 4.25 10.2
509 254 1 1.7 3.4 11.9
510 254 2 1.7 4.25 12.75
511 255 1 2.55 3.4 12.75
512 255 2 2.55 4.25 11.9
513 256 1 1.7 3.4 13.6
514 256 2 1.7 4.25 14.45
515 257 1 2.55 3.4 14.45
516 257 2 2.55 4.25 13.6
517 258 1 1.7 3.4 15.299999999999999
518 258 2 1.7 4.25 16.15
519 259 1 2.55 3.4 16.15
520 259 2 2.55 4.25 15.299999999999999
521 260 1 1.7 5.1 0.0
522 260 2 1.7 5.949999999999999 0.85
523 261 1 2.55 5.1 0.85
524 261 2 2.55 5.949999999999999 0.0
525 262 1 1.7 5.1 1.7
526 262 2 1.7 5.949999999999999 2.55
527 263 1 2.55 5.1 2.55
528 263 2 2.55 5.949999999999999 1.7
529 264 1 1.7 5.1 3.4
530 264 2 1.7 5.949999999999999 4.25
531 265 1 2.55 5.1 4.25
532 265 2 2.55 5.949999999999999 3.4
533 266 1 1.7 5.1 5.1
534 266 2 1.7 5.949999999999999 5.949999999999999
535 267 1 2.55 5.1 5.949999999999999
536 267 2 2.55 5.949999999999999 5.1
537 268 1 1.7 5.1 6.8
538 268 2 1.7 5.949999999999999 7.6499999999999995
539 269 1 2.55 5.1 7.6499999999999995
540 269 2 2.55 5.949999999999999 6.8
541 270 1 1.7 5.1 8.5
542 270 2 1.7 5.949999999999999 9.35
543 271 1 2.55 5.1 9.35
544 271 2 2.55 5.949999999999999 8.5
545 272 1 1.7 5.1 10.2
546 272 2 1.7 5.949999999999999 11.049999999999999
547 273 1 2.55 5.1 11.049999999999999
548 273 2 2.55 5.949999999999999 10.2
549 274 1 1.7 5.1 11.9
550 274 2 1.7 5.949999999999999 12.75
551 275 1 2.55 5.1 12.75
552 275 2 2.55 5.949999999999999 11.9
553 276 1 1.7 5.1 13.6
554 276 2 1.7 5.949999999999999 14.45
555 277 1 2.55 5.1 14.45
556 277 2 2.55 5.949999999999999 13.6
557 278 1 1.7 5.1 15.299999999999999
558 278 2 1.7 5.949999999999999 16.15
559 279 1 2.55 5.1 16.15
560 279 2 2.55 5.949999999999999 15.299999999999999
561 280 1 1.7 6.8 0.0
562 280 2 1.7 7.6499999999999995 0.85
563 281 1 2.55 6.8 0.85
564 281 2 2.55 7.6499999999999995 0.0
565 282 1 1.7 6.8 1.7
566 282 2 1.7 7.6499999999999995 2.55
567 283 1 2.55 6.8 2.55
568 283 2 2.55 7.6499999999999995 1.7
569 284 1 1.7 6.8 3.4
570 284 2 1.7 7.6499999999999995 4.25
571 285 1 2.55 6.8 4.25
572 285 2 2.55 7.6499999999999995 3.4
573 286 1 1.7 6.8 5.1
574 286 2 1.7 7.6499999999999995 5.949999999999999
575 287 1 2.55 6.8 5.949999999999999
576 287 2 2.55 7.6499999999999995 5.1
577 288 1 1.7 6.8 6.8
578 288 2 1.7 7.6499999999999995 7.6499999999999995
579 289 1 2.55 6.8 7.6499999999999995
580 289 2 2.55 7.6499999999999995 6.8
581 290 1 1.7 6.8 8.5
582 290 2 1.7 7.6499999999999995 9.35
583 291 1 2.55 6.8 9.35
584 291 2 2.55 7.6499999999999995 8.5
585 292 1 1.7 6.8 10.2
586 292 2 1.7 7.6499999999999995 11.049999999999999
587 293 1 2.55 6.8 11.049999999999999
588 293 2 2.55 7.6499999999999995 10.2
589 294 1 1.7 6.8 11.9
590 294 2 1.7 7.6499999999999995 12.75
591 295 1 2.55 6.8 12.75
592 295 2 2.55 7.6499999999999995 11.9
593 296 1 1.7 6.8 13.6
594 296 2 1.7 7.6499999999999995 14.45
595 297 1 2.55 6.8 14.45
596 297 2 2.55 7.6499999999999995 13.6
597 298 1 1.7 6.8 15.299999999999999
598 298 2 1.7 7.6499999999999995 16.15
599 299 1 2.55 6.8 16.15
600 299 2 2.55 7.6499999999999995 15.299999999999999
601 300 1 1.7 8.5 0.0
602 300 2 1.7 9.35 0.85
603 301 1 2.55 8.5 0.85
604 301 2 2.55 9.35 0.0
605 302 1 1.7 8.5 1.7
606 302 2 1.7 9.35 2.55
607 303 1 2.55 8.5 2.55
608 303 2 2.55 9.35 1.7
609 304 1 1.7 8.5 3.4
610 304 2 1.7 9.35 4.25
611 305 1 2.55 8.5 4.25
612 305 2 2.55 9.35 3.4
613 306 1 1.7 8.5 5.1
614 306 2 1.7 9.35 5.949999999999999
615 307 1 2.55 8.5 5.949999999999999
616 307 2 2.55 9.35 5.1
617 308 1 1.7 8.5 6.8
618 308 2 1.7 9.35 7.6499999999999995
619 309 1 2.55 8.5 7.6499999999999995
620 309 2 2.55 9.35 6.8
621 310 1 1.7 8.5 8.5
622 310 2 1.7 9.35 9.35
623 311 1 2.55 8.5 9.35
624 311 2 2.55 9.35 8.5
625 312 1 1.7 8.5 10.2
626 312 2 1.7 9.35 11.049999999999999
627 313 1 2.55 8.5 11.049999999999999
628 313 2 2.55 9.35 10.2
629 314 1 1.7 8.5 11.9
630 314 2 1.7 9.35 12.75
631 315 1 2.55 8.5 12.75
632 315 2 2.55 9.35 11.9
633 316 1 1.7 8.5 13.6
634 316 2 1.7 9.35 14.45
635 317 1 2.55 8.5 14.45
636 317 2 2.55 9.35 13.6
637 318 1 1.7 8.5 15.299999999999999
638 318 2 1.7 9.35 16.15
639 319 1 2.55 8.5 16.15
640 319 2 2.55 9.35 15.299999999999999
641 320 1 1.7 10.2 0.0
642 320 2 1.7 11.049999999999999 0.85
643 321 1 2.55 10.2 0.85
644 321 2 2.55 11.049999999999999 0.0
645 322 1 1.7 10.2 1.7
646 322 2 1.7 11.049999999999999 2.55
647 323 1 2.55 10.2 2.55
648 323 2 2.55 11.049999999999999 1.7
649 324 1 1.7 10.2 3.4
650 324 2 1.7 11.049999999999999 4.25
651 325 1 2.55 10.2 4.25
652 325 2 2.55 11.049999999999999 3.4
653 326 1 1.7 10.2 5.1
654 326 2 1.7 11.049999999999999 5.949999999999999
655 327 1 2.55 10.2 5.949999999999999
656 327 2 2.55 11.049999999999999 5.1
657 328 1 1.7 10.2 6.8
658 328 2 1.7 11.049999999999999 7.6499999999999995
659 329 1 2.55 10.2 7.6499999999999995
660 329 2 2.55 11.049999999999999 6.8
661 330 1 1.7 10.2 8.5
662 330 2 1.7 11.049999999999999 9.35
663 331 1 2.55 10.2 9.35
664 331 2 2.55 11.049999999999999 8.5
665 332 1 1.7 10.2 10.2
666 332 2 1.7 11.049999999999999 11.049999999999999
667 333 1 2.55 10.2 11.049999999999999
668 333 2 2.55 11.049999999999999 10.2
669 334 1 1.7 10.2 11.9
670 334 2 1.7 11.049999999999999 12.75
671 335 1 2.55 10.2 12.75
672 335 2 2.55 11.049999999999999 11.9
673 336 1 1.7 10.2 13.6
674 336 2 1.7 11.049999999999999 14.45
675 337 1 2.55 10.2 14.45
676 337 2 2.55 11.049999999999999 13.6
677 338 1 1.7 10.2 15.299999999999999
678 338 2 1.7 11.049999999999999 16.15
679 339 1 2.55 10.2 16.15
680 339 2 2.55 11.049999999999999 15.299999999999999
681 340 1 1.7 11.9 0.0
682 340 2 1.7 12.75 0.85
683 341 1 2.55 11.9 0.85
684 341 2 2.55 12.75 0.0
685 342 1 1.7 11.9 1.7
686 342 2 1.7 12.75 2.55
687 343 1 2.55 11.9 2.55
688 343 2 2.55 12.75 1.7
689 344 1 1.7 11.9 3.4
690 344 2 1.7 12.75 4.25
691 345 1 2.55 11.9 4.25
692 345 2 2.55 12.75 3.4
693 346 1 1.7 11.9 5.1
694 346 2 1.7 12.75 5.949999999999999
695 347 1 2.55 11.9 5.949999999999999
696 347 2 2.55 12.75 5.1
697 348 1 1.7 11.9 6.8
698 348 2 1.7 12.75 7.6499999999999995
699 349 1 2.55 11.9 7.6499999999999995
700 349 2 2.55 12.75 6.8
701 350 1 1.7 11.9 8.5
702 350 2 1.7 12.75 9.35
703 351 1 2.55 11.9 9.35
704 351 2 2.55 12.75 8.5
705 352 1 1.7 11.9 10.2
706 352 2 1.7 12.75 11.049999999999999
707 353 1 2.55 11.9 11.049999999999999
708 353 2 2.55 12.75 10.2
709 354 1 1.7 11.9 11.9
710 354 2 1.7 12.75 12.75
711 355 1 2.55 11.9 12.75
712 355 2 2.55 12.75 11.9
713 356 1 1.7 11.9 13.6
714 356 2 1.7 12.75 14.45
715 357 1 2.55 11.9 14.45
716 357 2 2.55 12.75 13.6
717 358 1 1.7 11.9 15.299999999999999
718 358 2 1.7 12.75 16.15
719 359 1 2.55 11.9 16.15
720 359 2 2.55 12.75 15.299999999999999
721 360 1 1.7 13.6 0.0
722 360 2 1.7 14.45 0.85
723 361 1 2.55 13.6 0.85
724 361 2 2.55 14.45 0.0
725 362 1 1.7 13.6 1.7
726 362 2 1.7 14.45 2.55
727 363 1 2.55 13.6 2.55
728 363 2 2.55 14.45 1.7
729 364 1 1.7 13.6 3.4
730 364 2 1.7 14.45 4.25
731 365 1 2.55 13.6 4.25
732 365 2 2.55 14.45 3.4
733 366 1 1.7 13.6 5.1
734 366 2 1.7 14.45 5.949999999999999
735 367 1 2.55 13.6 5.949999999999999
736 367 2 2.55 14.45 5.1
737 368 1 1.7 13.6 6.8
738 368 2 1.7 14.45 7.6499999999999995
739 369 1 2.55 13.6 7.6499999999999995
740 369 2 2.55 14.45 6.8
741 370 1 1.7 13.6 8.5
742 370 2 1.7 14.45 9.35
743 371 1 2.55 13.6 9.35
744 371 2 2.55 14.45 8.5
745 372 1 1.7 13.6 10.2
746 372 2 1.7 14.45 11.049999999999999
747 373 1 2.55 13.6 11.049999999999999
748 373 2 2.55 14.45 10.2
749 374 1 1.7 13.6 11.9
750 374 2 1.7 14.45 12.75
751 375 1 2.55 13.6 12.75
752 375 2 2.55 14.45 11.9
753 376 1 1.7 13.6 13.6
754 376 2 1.7 14.45 14.45
755 377 1 2.55 13.6 14.45
756 377 2 2.55 14.45 13.6
757 378 1 1.7 13.6 15.299999999999999
758 378 2 1.7 14.45 16.15
759 379 1 2.55 13.6 16.15
760 379 2 2.55 14.45 15.299999999999999
761 380 1 1.7 15.299999999999999 0.0
762 380 2 1.7 16.15 0.85
763 381 1 2.55 15.299999999999999 0.85
764 381 2 2.55 16.15 0.0
765 382 1 1.7 15.299999999999999 1.7
766 382 2 1.7 16.15 2.55
767 383 1 2.55 15.299999999999999 2.55
768 383 2 2.55 16.15 1.7
769 384 1 1.7 15.299999999999999 3.4
770 384 2 1.7 16.15 4.25
771 385 1 2.55 15.299999999999999 4.25
772 385 2 2.55 16.15 3.4
773 386 1 1.7 15.299999999999999 5.1
774 386 2 1.7 16.15 5.949999999999999
775 387 1 2.55 15.299999999999999 5.949999999999999
776 387 2 2.55 16.15 5.1
777 388 1 1.7 15.299999999999999 6.8
778 388 2 1.7 16.15 7.6499999999999995
779 389 1 2.55 15.299999999999999 7.6499999999999995
780 389 2 2.55 16.15 6.8
781 390 1 1.7 15.299999999999999 8.5
782 390 2 1.7 16.15 9.35
783 391 1 2.55 15.299999999999999 9.35
784 391 2 2.55 16.15 8.5
785 392 1 1.7 15.299999999999999 10.2
786 392 2 1.7 16.15 11.049999999999999
787 393 1 2.55 15.299999999999999 11.049999999999999
788 393 2 2.55 16.15 10.2
789 394 1 1.7 15.299999999999999 11.9
790 394 2 1.7 16.15 12.75
791 395 1 2.55 15.299999999999999 12.75
792 395 2 2.55 16.15 11.9
793 396 1 1.7 15.299999999999999 13.6
794 396 2 1.7 16.15 14.45
795 397 1 2.55 15.299999999999999 14.45
796 397 2 2.55 16.15 13.6
797 398 1 1.7 15.299999999999999 15.299999999999999
798 398 2 1.7 16.15 16.15
799 399 1 2.55 15.299999999999999 16.15
800 399 2 2.55 16.15 15.299999999999999
801 400 1 3.4 0.0 0.0
802 401 1 3.4 0.85 0.85
803 402 1 4.25 0.0 0.85
804 403 1 4.25 0.85 0.0
805 404 1 3.4 0.0 1.7
806 405 1 3.4 0.85 2.55
807 406 1 4.25 0.0 2.55
808 407 1 4.25 0.85 1.7
809 408 1 3.4 0.0 3.4
810 409 1 3.4 0.85 4.25
811 410 1 4.25 0.0 4.25
812 411 1 4.25 0.85 3.4
813 412 1 3.4 0.0 5.1
814 413 1 3.4 0.85 5.949999999999999
815 414 1 4.25 0.0 5.949999999999999
816 415 1 4.25 0.85 5.1
817 416 1 3.4 0.0 6.8
818 417 1 3.4 0.85 7.6499999999999995
819 418 1 4.25 0.0 7.6499999999999995
820 419 1 4.25 0.85 6.8
821 420 1 3.4 0.0 8.5
822 421 1 3.4 0.85 9.35
823 422 1 4.25 0.0 9.35
824 423 1 4.25 0.85 8.5
825 424 1 3.4 0.0 10.2
826 425 1 3.4 0.85 11.049999999999999
827 426 1 4.25 0.0 11.049999999999999
828 427 1 4.25 0.85 10.2
829 428 1 3.4 0.0 11.9
830 429 1 3.4 0.85 12.75
831 430 1 4.25 0.0 12.75
832 431 1 4.25 0.85 11.9
833 432 1 3.4 0.0 13.6
834 433 1 3.4 0.85 14.45
835 434 1 4.25 0.0 14.45
836 435 1 4.25 0.85 13.6
837 436 1 3.4 0.0 15.299999999999999
838 437 1 3.4 0.85 16.15
839 438 1 4.25 0.0 16.15
840 439 1 4.25 0.85 15.299999999999999
841 440 1 3.4 1.7 0.0
842 441 1 3.4 2.55 0.85
843 442 1 4.25 1.7 0.85
844 443 1 4.25 2.55 0.0
845 444 1 3.4 1.7 1.7
846 445 1 3.4 2.55 2.55
847 446 1 4.25 1.7 2.55
848 447 1 4.25 2.55 1.7
849 448 1 3.4 1.7 3.4
850 449 1 3.4 2.55 4.25
851 450 1 4.25 1.7 4.25
852 451 1 4.25 2.55 3.4
853 452 1 3.4 1.7 5.1
854 453 1 3.4 2.55 5.949999999999999
855 454 1 4.25 1.7 5.949999999999999
856 455 1 4.25 2.55 5.1
857 456 1 3.4 1.7 6.8
858 457 1 3.4 2.55 7.6499999999999995
859 458 1 4.25 1.7 7.6499999999999995
860 459 1 4.25 2.55 6.8
861 460 1 3.4 1.7 8.5
862 461 1 3.4 2.55 9.35
863 462 1 4.25 1.7 9.35
864 463 1 4.25 2.55 8.5
865 464 1 3.4 1.7 10.2
866 465 1 3.4 2.55 11.049999999999999
867 466 1 4.25 1.7 11.049999999999999
868 467 1 4.25 2.55 10.2
869 468 1 3.4 1.7 11.9
870 469 1 3.4 2.55 12.75
871 470 1 4.25 1.7 12.75
872 471 1 4.25 2.55 11.9
873 472 1 3.4 1.7 13.6
874 473 1 3.4 2.55 14.45
875 474 1 4.25 1.7 14.45
876 475 1 4.25 2.55 13.6
877 476 1 3.4 1.7 15.299999999999999
878 477 1 3.4 2.55 16.15
879 478 1 4.25 1.7 16.15
880 479 1 4.25 2.55 15.299999999999999
881 480 1 3.4 3.4 0.0
882 481 1 3.4 4.25 0.85
883 482 1 4.25 3.4 0.85
884 483 1 4.25 4.25 0.0
885 484 1 3.4 3.4 1.7
886 485 1 3.4 4.25 2.55
887 486 1 4.25 3.4 2.55
888 487 1 4.25 4.25 1.7
889 488 1 3.4 3.4 3.4
890 489 1 3.4 4.25 4.25
891 490 1 4.25 3.4 4.25
892 491 1 4.25 4.25 3.4
893 492 1 3.4 3.4 5.1
894 493 1 3.4 4.25 5.949999999999999
895 494 1 4.25 3.4 5.949999999999999
896 495 1 4.25 4.25 5.1
897 496 1 3.4 3.4 6.8
898 497 1 3.4 4.25 7.6499999999999995
899 498 1 4.25 3.4 7.6499999999999995
900 499 1 4.25 4.25 6.8
901 500 1 3.4 3.4 8.5
902 501 1 3.4 4.25 9.35
903 502 1 4.25 3.4 9.35
904 503 1 4.25 4.25 8.5
905 504 1 3.4 3.4 10.2
906 505 1 3.4 4.25 11.049999999999999
907 506 1 4.25 3.4 11.049999999999999
908 507 1 4.25 4.25 10.2
909 508 1 3.4 3.4 11.9
910 509 1 3.4 4.25 12.75
911 510 1 4.25 3.4 12.75
912 511 1 4.25 4.25 11.9
913 512 1 3.4 3.4 13.6
914 513 1 3.4 4.25 14.45
915 514 1 4.25 3.4 14.45
916 515 1 4.25 4.25 13.6
917 516 1 3.4 3.4 15.299999999999999
918 517 1 3.4 4.25 16.15
919 518 1 4.25 3.4 16.15
920 519 1 4.25 4.25 15.299999999999999
921 520 1 3.4 5.1 0.0
922 521 1 3.4 5.949999999999999 0.85
923 522 1 4.25 5.1 0.85
924 523 1 4.25 5.949999999999999 0.0
925 524 1 3.4 5.1 1.7
926 525 1 3.4 5.949999999999999 2.55
927 526 1 4.25 5.1 2.55
928 527 1 4.25 5.949999999999999 1.7
929 528 1 3.4 5.1 3.4
930 529 1 3.4 5.949999999999999 4.25
931 530 1 4.25 5.1 4.25
932 531 1 4.25 5.949999999999999 3.4
933 532 1 3.4 5.1 5.1
934 533 1 3.4 5.949999999999999 5.949999999999999
935 534 1 4.25 5.1 5.949999999999999
936 535 1 4.25 5.949999999999999 5.1
937 536 1 3.4 5.1 6.8
938 537 1 3.4 5.949999999999999 7.6499999999999995
939 538 1 4.25 5.1 7.6499999999999995
940 539 1 4.25 5.949999999999999 6.8
941 540 1 3.4 5.1 8.5
942 541 1 3.4 5.949999999999999 9.35
943 542 1 4.25 5.1 9.35
944 543 1 4.25 5.949999999999999 8.5
945 544 1 3.4 5.1 10.2
946 545 1 3.4 5.949999999999999 11.049999999999999
947 546 1 4.25 5.1 11.049999999999999
948 547 1 4.25 5.949999999999999 10.2
949 548 1 3.4 5.1 11.9
950 549 1 3.4 5.949999999999999 12.75
951 550 1 4.25 5.1 12.75
952 551 1 4.25 5.949999999999999 11.9
953 552 1 3.4 5.1 13.6
954 553 1 3.4 5.949999999999999 14.45
955 554 1 4.25 5.1 14.45
956 555 1 4.25 5.949999999999999 13.6
957 556 1 3.4 5.1 15.299999999999999
958 557 1 3.4 5.949999999999999 16.15
959 558 1 4.25 5.1 16.15
960 559 1 4.25 5.949999999999999 15.299999999999999
961 560 1 3.4 6.8 0.0
962 561 1 3.4 7.6499999999999995 0.85
963 562 1 4.25 6.8 0.85
964 563 1 4.25 7.6499999999999995 0.0
965 564 1 3.4 6.8 1.7
966 565 1 3.4 7.6499999999999995 2.55
967 566 1 4.25 6.8 2.55
968 567 1 4.25 7.6499999999999995 1.7
969 568 1 3.4 6.8 3.4
970 569 1 3.4 7.6499999999999995 4.25
971 570 1 4.25 6.8 4.25
972 571 1 4.25 7.6499999999999995 3.4
973 572 1 3.4 6.8 5.1
974 573 1 3.4 7.6499999999999995 5.949999999999999
975 574 1 4.25 6.8 5.949999999999999
976 575 1 4.25 7.6499999999999995 5.1
977 576 1 3.4 6.8 6.8
978 577 1 3.4 7.6499999999999995 7.6499999999999995
979 578 1 4.25 6.8 7.6499999999999995
980 579 1 4.25 7.6499999999999995 6.8
981 580 1 3.4 6.8 8.5
982 581 1 3.4 7.6499999999999995 9.35
983 582 1 4.25 6.8 9.35
984 583 1 4.25 7.6499999999999995 8.5
985 584 1 3.4 6.8 10.2
986 585 1 3.4 7.6499999999999995 11.049999999999999
987 586 1 4.25 6.8 11.049999999999999
988 587 1 4.25 7.6499999999999995 10.2
989 588 1 3.4 6.8 11.9
990 589 1 3.4 7.6499999999999995 12.75
991 590 1 4.25 6.8 12.75
992 591 1 4.25 7.6499999999999995 11.9
993 592 1 3.4 6.8 13.6
994 593 1 3.4 7.6499999999999995 14.45
995 594 1 4.25 6.8 14.45
996 595 1 4.25 7.6499999999999995 13.6
997 596 1 3.4 6.8 15.299999999999999
998 597 1 3.4 7.6499999999999995 16.15
999 598 1 4.25 6.8 16.15
1000 599 1 4.25 7.6499999999999995 15.299999999999999
1001 600 1 3.4 8.5 0.0
1002 601 1 3.4 9.35 0.85
1003 602 1 4.25 8.5 0.85
1004 603 1 4.25 9.35 0.0
1005 604 1 3.4 8.5 1.7
1006 605 1 3.4 9.35 2.55
1007 606 1 4.25 8.5 2.55
1008 607 1 4.25 9.35 1.7
1009 608 1 3.4 8.5 3.4
1010 609 1 3.4 9.35 4.25
1011 610 1 4.25 8.5 4.25
1012 611 1 4.25 9.35 3.4
1013 612 1 3.4 8.5 5.1
1014 613 1 3.4 9.35 5.949999999999999
1015 614 1 4.25 8.5 5.949999999999999
1016 615 1 4.25 9.35 5.1
1017 616 1 3.4 8.5 6.8
1018 617 1 3.4 9.35 7.6499999999999995
1019 618 1 4.25 8.5 7.6499999999999995
1020 619 1 4.25 9.35 6.8
1021 620 1 3.4 8.5 8.5