Position Data

6 atoms
2 bonds
2 atom types
1 bond types

0.0 3.0 xlo xhi
0.0 3.0 ylo yhi
0.0 3.0 zlo zhi

Atoms
# 粒子番号、BondID、atom type、座標
1 0 1 0.0 0.0 0.0
2 0 2 1.5 1.5 0.0
3 1 1 0.0 1.5 1.5
4 1 2 1.5 1.5 1.5
5 2 1 2.0 2.0 2.0  #bondなしの粒子 
6 3 1 2.5 2.0 2.0

Velocities

1 0.0 0.0 0.0
2 0.0 0.0 0.0
3 0.0 0.0 0.0
4 0.0 0.0 0.0
5 0.0 0.0 0.0
6 0.0 0.0 0.0

Bonds

1 1 1 2 
2 1 3 4 

