Position Data

4000 atoms
344 bonds

2 atom types
1 bond types

0.00 30.80 xlo xhi
0.00 15.40 ylo yhi
0.00 15.40 zlo zhi

Atoms

1 0 1 0.0 0.0 0.0
2 0 2 0.0 0.77 0.77
3 1 1 0.77 0.0 0.77
4 2 1 0.77 0.77 0.0
5 3 1 0.0 0.0 1.54
6 4 1 0.0 0.77 2.31
7 5 1 0.77 0.0 2.31
8 6 1 0.77 0.77 1.54
9 7 1 0.0 0.0 3.08
10 8 1 0.0 0.77 3.85
11 9 1 0.77 0.0 3.85
12 10 1 0.77 0.77 3.08
13 11 1 0.0 0.0 4.62
14 12 1 0.0 0.77 5.390000000000001
15 13 1 0.77 0.0 5.390000000000001
16 14 1 0.77 0.77 4.62
17 15 1 0.0 0.0 6.16
18 15 2 0.0 0.77 6.93
19 16 1 0.77 0.0 6.93
20 17 1 0.77 0.77 6.16
21 18 1 0.0 0.0 7.7
22 19 1 0.0 0.77 8.47
23 20 1 0.77 0.0 8.47
24 21 1 0.77 0.77 7.7
25 22 1 0.0 0.0 9.24
26 22 2 0.0 0.77 10.01
27 23 1 0.77 0.0 10.01
28 24 1 0.77 0.77 9.24
29 25 1 0.0 0.0 10.780000000000001
30 25 2 0.0 0.77 11.55
31 26 1 0.77 0.0 11.55
32 27 1 0.77 0.77 10.780000000000001
33 28 1 0.0 0.0 12.32
34 29 1 0.0 0.77 13.09
35 30 1 0.77 0.0 13.09
36 31 1 0.77 0.77 12.32
37 32 1 0.0 0.0 13.86
38 33 1 0.0 0.77 14.629999999999999
39 34 1 0.77 0.0 14.629999999999999
40 35 1 0.77 0.77 13.86
41 36 1 0.0 1.54 0.0
42 37 1 0.0 2.31 0.77
43 38 1 0.77 1.54 0.77
44 39 1 0.77 2.31 0.0
45 40 1 0.0 1.54 1.54
46 41 1 0.0 2.31 2.31
47 42 1 0.77 1.54 2.31
48 43 1 0.77 2.31 1.54
49 44 1 0.0 1.54 3.08
50 45 1 0.0 2.31 3.85
51 46 1 0.77 1.54 3.85
52 47 1 0.77 2.31 3.08
53 48 1 0.0 1.54 4.62
54 49 1 0.0 2.31 5.390000000000001
55 50 1 0.77 1.54 5.390000000000001
56 51 1 0.77 2.31 4.62
57 52 1 0.0 1.54 6.16
58 52 2 0.0 2.31 6.93
59 53 1 0.77 1.54 6.93
60 54 1 0.77 2.31 6.16
61 55 1 0.0 1.54 7.7
62 55 2 0.0 2.31 8.47
63 56 1 0.77 1.54 8.47
64 57 1 0.77 2.31 7.7
65 58 1 0.0 1.54 9.24
66 59 1 0.0 2.31 10.01
67 60 1 0.77 1.54 10.01
68 61 1 0.77 2.31 9.24
69 62 1 0.0 1.54 10.780000000000001
70 62 2 0.0 2.31 11.55
71 63 1 0.77 1.54 11.55
72 64 1 0.77 2.31 10.780000000000001
73 65 1 0.0 1.54 12.32
74 65 2 0.0 2.31 13.09
75 66 1 0.77 1.54 13.09
76 67 1 0.77 2.31 12.32
77 68 1 0.0 1.54 13.86
78 68 2 0.0 2.31 14.629999999999999
79 69 1 0.77 1.54 14.629999999999999
80 70 1 0.77 2.31 13.86
81 71 1 0.0 3.08 0.0
82 72 1 0.0 3.85 0.77
83 73 1 0.77 3.08 0.77
84 74 1 0.77 3.85 0.0
85 75 1 0.0 3.08 1.54
86 76 1 0.0 3.85 2.31
87 77 1 0.77 3.08 2.31
88 78 1 0.77 3.85 1.54
89 79 1 0.0 3.08 3.08
90 80 1 0.0 3.85 3.85
91 81 1 0.77 3.08 3.85
92 82 1 0.77 3.85 3.08
93 83 1 0.0 3.08 4.62
94 84 1 0.0 3.85 5.390000000000001
95 85 1 0.77 3.08 5.390000000000001
96 86 1 0.77 3.85 4.62
97 87 1 0.0 3.08 6.16
98 88 1 0.0 3.85 6.93
99 89 1 0.77 3.08 6.93
100 90 1 0.77 3.85 6.16
101 91 1 0.0 3.08 7.7
102 92 1 0.0 3.85 8.47
103 93 1 0.77 3.08 8.47
104 94 1 0.77 3.85 7.7
105 95 1 0.0 3.08 9.24
106 96 1 0.0 3.85 10.01
107 97 1 0.77 3.08 10.01
108 98 1 0.77 3.85 9.24
109 99 1 0.0 3.08 10.780000000000001
110 99 2 0.0 3.85 11.55
111 100 1 0.77 3.08 11.55
112 101 1 0.77 3.85 10.780000000000001
113 102 1 0.0 3.08 12.32
114 103 1 0.0 3.85 13.09
115 104 1 0.77 3.08 13.09
116 105 1 0.77 3.85 12.32
117 106 1 0.0 3.08 13.86
118 107 1 0.0 3.85 14.629999999999999
119 108 1 0.77 3.08 14.629999999999999
120 109 1 0.77 3.85 13.86
121 110 1 0.0 4.62 0.0
122 111 1 0.0 5.390000000000001 0.77
123 112 1 0.77 4.62 0.77
124 113 1 0.77 5.390000000000001 0.0
125 114 1 0.0 4.62 1.54
126 114 2 0.0 5.390000000000001 2.31
127 115 1 0.77 4.62 2.31
128 116 1 0.77 5.390000000000001 1.54
129 117 1 0.0 4.62 3.08
130 117 2 0.0 5.390000000000001 3.85
131 118 1 0.77 4.62 3.85
132 119 1 0.77 5.390000000000001 3.08
133 120 1 0.0 4.62 4.62
134 121 1 0.0 5.390000000000001 5.390000000000001
135 122 1 0.77 4.62 5.390000000000001
136 123 1 0.77 5.390000000000001 4.62
137 124 1 0.0 4.62 6.16
138 124 2 0.0 5.390000000000001 6.93
139 125 1 0.77 4.62 6.93
140 126 1 0.77 5.390000000000001 6.16
141 127 1 0.0 4.62 7.7
142 128 1 0.0 5.390000000000001 8.47
143 129 1 0.77 4.62 8.47
144 130 1 0.77 5.390000000000001 7.7
145 131 1 0.0 4.62 9.24
146 132 1 0.0 5.390000000000001 10.01
147 133 1 0.77 4.62 10.01
148 134 1 0.77 5.390000000000001 9.24
149 135 1 0.0 4.62 10.780000000000001
150 135 2 0.0 5.390000000000001 11.55
151 136 1 0.77 4.62 11.55
152 137 1 0.77 5.390000000000001 10.780000000000001
153 138 1 0.0 4.62 12.32
154 139 1 0.0 5.390000000000001 13.09
155 140 1 0.77 4.62 13.09
156 141 1 0.77 5.390000000000001 12.32
157 142 1 0.0 4.62 13.86
158 143 1 0.0 5.390000000000001 14.629999999999999
159 144 1 0.77 4.62 14.629999999999999
160 145 1 0.77 5.390000000000001 13.86
161 146 1 0.0 6.16 0.0
162 147 1 0.0 6.93 0.77
163 148 1 0.77 6.16 0.77
164 149 1 0.77 6.93 0.0
165 150 1 0.0 6.16 1.54
166 151 1 0.0 6.93 2.31
167 152 1 0.77 6.16 2.31
168 153 1 0.77 6.93 1.54
169 154 1 0.0 6.16 3.08
170 155 1 0.0 6.93 3.85
171 156 1 0.77 6.16 3.85
172 157 1 0.77 6.93 3.08
173 158 1 0.0 6.16 4.62
174 159 1 0.0 6.93 5.390000000000001
175 160 1 0.77 6.16 5.390000000000001
176 161 1 0.77 6.93 4.62
177 162 1 0.0 6.16 6.16
178 163 1 0.0 6.93 6.93
179 164 1 0.77 6.16 6.93
180 165 1 0.77 6.93 6.16
181 166 1 0.0 6.16 7.7
182 167 1 0.0 6.93 8.47
183 168 1 0.77 6.16 8.47
184 169 1 0.77 6.93 7.7
185 170 1 0.0 6.16 9.24
186 170 2 0.0 6.93 10.01
187 171 1 0.77 6.16 10.01
188 172 1 0.77 6.93 9.24
189 173 1 0.0 6.16 10.780000000000001
190 174 1 0.0 6.93 11.55
191 175 1 0.77 6.16 11.55
192 176 1 0.77 6.93 10.780000000000001
193 177 1 0.0 6.16 12.32
194 177 2 0.0 6.93 13.09
195 178 1 0.77 6.16 13.09
196 179 1 0.77 6.93 12.32
197 180 1 0.0 6.16 13.86
198 180 2 0.0 6.93 14.629999999999999
199 181 1 0.77 6.16 14.629999999999999
200 182 1 0.77 6.93 13.86
201 183 1 0.0 7.7 0.0
202 184 1 0.0 8.47 0.77
203 185 1 0.77 7.7 0.77
204 186 1 0.77 8.47 0.0
205 187 1 0.0 7.7 1.54
206 188 1 0.0 8.47 2.31
207 189 1 0.77 7.7 2.31
208 190 1 0.77 8.47 1.54
209 191 1 0.0 7.7 3.08
210 192 1 0.0 8.47 3.85
211 193 1 0.77 7.7 3.85
212 194 1 0.77 8.47 3.08
213 195 1 0.0 7.7 4.62
214 196 1 0.0 8.47 5.390000000000001
215 197 1 0.77 7.7 5.390000000000001
216 198 1 0.77 8.47 4.62
217 199 1 0.0 7.7 6.16
218 200 1 0.0 8.47 6.93
219 201 1 0.77 7.7 6.93
220 202 1 0.77 8.47 6.16
221 203 1 0.0 7.7 7.7
222 204 1 0.0 8.47 8.47
223 205 1 0.77 7.7 8.47
224 206 1 0.77 8.47 7.7
225 207 1 0.0 7.7 9.24
226 208 1 0.0 8.47 10.01
227 209 1 0.77 7.7 10.01
228 210 1 0.77 8.47 9.24
229 211 1 0.0 7.7 10.780000000000001
230 212 1 0.0 8.47 11.55
231 213 1 0.77 7.7 11.55
232 214 1 0.77 8.47 10.780000000000001
233 215 1 0.0 7.7 12.32
234 215 2 0.0 8.47 13.09
235 216 1 0.77 7.7 13.09
236 217 1 0.77 8.47 12.32
237 218 1 0.0 7.7 13.86
238 219 1 0.0 8.47 14.629999999999999
239 220 1 0.77 7.7 14.629999999999999
240 221 1 0.77 8.47 13.86
241 222 1 0.0 9.24 0.0
242 223 1 0.0 10.01 0.77
243 224 1 0.77 9.24 0.77
244 225 1 0.77 10.01 0.0
245 226 1 0.0 9.24 1.54
246 227 1 0.0 10.01 2.31
247 228 1 0.77 9.24 2.31
248 229 1 0.77 10.01 1.54
249 230 1 0.0 9.24 3.08
250 230 2 0.0 10.01 3.85
251 231 1 0.77 9.24 3.85
252 232 1 0.77 10.01 3.08
253 233 1 0.0 9.24 4.62
254 234 1 0.0 10.01 5.390000000000001
255 235 1 0.77 9.24 5.390000000000001
256 236 1 0.77 10.01 4.62
257 237 1 0.0 9.24 6.16
258 237 2 0.0 10.01 6.93
259 238 1 0.77 9.24 6.93
260 239 1 0.77 10.01 6.16
261 240 1 0.0 9.24 7.7
262 241 1 0.0 10.01 8.47
263 242 1 0.77 9.24 8.47
264 243 1 0.77 10.01 7.7
265 244 1 0.0 9.24 9.24
266 244 2 0.0 10.01 10.01
267 245 1 0.77 9.24 10.01
268 246 1 0.77 10.01 9.24
269 247 1 0.0 9.24 10.780000000000001
270 248 1 0.0 10.01 11.55
271 249 1 0.77 9.24 11.55
272 250 1 0.77 10.01 10.780000000000001
273 251 1 0.0 9.24 12.32
274 252 1 0.0 10.01 13.09
275 253 1 0.77 9.24 13.09
276 254 1 0.77 10.01 12.32
277 255 1 0.0 9.24 13.86
278 255 2 0.0 10.01 14.629999999999999
279 256 1 0.77 9.24 14.629999999999999
280 257 1 0.77 10.01 13.86
281 258 1 0.0 10.780000000000001 0.0
282 258 2 0.0 11.55 0.77
283 259 1 0.77 10.780000000000001 0.77
284 260 1 0.77 11.55 0.0
285 261 1 0.0 10.780000000000001 1.54
286 262 1 0.0 11.55 2.31
287 263 1 0.77 10.780000000000001 2.31
288 264 1 0.77 11.55 1.54
289 265 1 0.0 10.780000000000001 3.08
290 265 2 0.0 11.55 3.85
291 266 1 0.77 10.780000000000001 3.85
292 267 1 0.77 11.55 3.08
293 268 1 0.0 10.780000000000001 4.62
294 269 1 0.0 11.55 5.390000000000001
295 270 1 0.77 10.780000000000001 5.390000000000001
296 271 1 0.77 11.55 4.62
297 272 1 0.0 10.780000000000001 6.16
298 273 1 0.0 11.55 6.93
299 274 1 0.77 10.780000000000001 6.93
300 275 1 0.77 11.55 6.16
301 276 1 0.0 10.780000000000001 7.7
302 277 1 0.0 11.55 8.47
303 278 1 0.77 10.780000000000001 8.47
304 279 1 0.77 11.55 7.7
305 280 1 0.0 10.780000000000001 9.24
306 281 1 0.0 11.55 10.01
307 282 1 0.77 10.780000000000001 10.01
308 283 1 0.77 11.55 9.24
309 284 1 0.0 10.780000000000001 10.780000000000001
310 285 1 0.0 11.55 11.55
311 286 1 0.77 10.780000000000001 11.55
312 287 1 0.77 11.55 10.780000000000001
313 288 1 0.0 10.780000000000001 12.32
314 289 1 0.0 11.55 13.09
315 290 1 0.77 10.780000000000001 13.09
316 291 1 0.77 11.55 12.32
317 292 1 0.0 10.780000000000001 13.86
318 293 1 0.0 11.55 14.629999999999999
319 294 1 0.77 10.780000000000001 14.629999999999999
320 295 1 0.77 11.55 13.86
321 296 1 0.0 12.32 0.0
322 297 1 0.0 13.09 0.77
323 298 1 0.77 12.32 0.77
324 299 1 0.77 13.09 0.0
325 300 1 0.0 12.32 1.54
326 300 2 0.0 13.09 2.31
327 301 1 0.77 12.32 2.31
328 302 1 0.77 13.09 1.54
329 303 1 0.0 12.32 3.08
330 303 2 0.0 13.09 3.85
331 304 1 0.77 12.32 3.85
332 305 1 0.77 13.09 3.08
333 306 1 0.0 12.32 4.62
334 307 1 0.0 13.09 5.390000000000001
335 308 1 0.77 12.32 5.390000000000001
336 309 1 0.77 13.09 4.62
337 310 1 0.0 12.32 6.16
338 310 2 0.0 13.09 6.93
339 311 1 0.77 12.32 6.93
340 312 1 0.77 13.09 6.16
341 313 1 0.0 12.32 7.7
342 313 2 0.0 13.09 8.47
343 314 1 0.77 12.32 8.47
344 315 1 0.77 13.09 7.7
345 316 1 0.0 12.32 9.24
346 317 1 0.0 13.09 10.01
347 318 1 0.77 12.32 10.01
348 319 1 0.77 13.09 9.24
349 320 1 0.0 12.32 10.780000000000001
350 321 1 0.0 13.09 11.55
351 322 1 0.77 12.32 11.55
352 323 1 0.77 13.09 10.780000000000001
353 324 1 0.0 12.32 12.32
354 325 1 0.0 13.09 13.09
355 326 1 0.77 12.32 13.09
356 327 1 0.77 13.09 12.32
357 328 1 0.0 12.32 13.86
358 328 2 0.0 13.09 14.629999999999999
359 329 1 0.77 12.32 14.629999999999999
360 330 1 0.77 13.09 13.86
361 331 1 0.0 13.86 0.0
362 331 2 0.0 14.629999999999999 0.77
363 332 1 0.77 13.86 0.77
364 333 1 0.77 14.629999999999999 0.0
365 334 1 0.0 13.86 1.54
366 335 1 0.0 14.629999999999999 2.31
367 336 1 0.77 13.86 2.31
368 337 1 0.77 14.629999999999999 1.54
369 338 1 0.0 13.86 3.08
370 339 1 0.0 14.629999999999999 3.85
371 340 1 0.77 13.86 3.85
372 341 1 0.77 14.629999999999999 3.08
373 342 1 0.0 13.86 4.62
374 343 1 0.0 14.629999999999999 5.390000000000001
375 344 1 0.77 13.86 5.390000000000001
376 345 1 0.77 14.629999999999999 4.62
377 346 1 0.0 13.86 6.16
378 346 2 0.0 14.629999999999999 6.93
379 347 1 0.77 13.86 6.93
380 348 1 0.77 14.629999999999999 6.16
381 349 1 0.0 13.86 7.7
382 350 1 0.0 14.629999999999999 8.47
383 351 1 0.77 13.86 8.47
384 352 1 0.77 14.629999999999999 7.7
385 353 1 0.0 13.86 9.24
386 354 1 0.0 14.629999999999999 10.01
387 355 1 0.77 13.86 10.01
388 356 1 0.77 14.629999999999999 9.24
389 357 1 0.0 13.86 10.780000000000001
390 358 1 0.0 14.629999999999999 11.55
391 359 1 0.77 13.86 11.55
392 360 1 0.77 14.629999999999999 10.780000000000001
393 361 1 0.0 13.86 12.32
394 362 1 0.0 14.629999999999999 13.09
395 363 1 0.77 13.86 13.09
396 364 1 0.77 14.629999999999999 12.32
397 365 1 0.0 13.86 13.86
398 366 1 0.0 14.629999999999999 14.629999999999999
399 367 1 0.77 13.86 14.629999999999999
400 368 1 0.77 14.629999999999999 13.86
401 369 1 1.54 0.0 0.0
402 370 1 1.54 0.77 0.77
403 371 1 2.31 0.0 0.77
404 372 1 2.31 0.77 0.0
405 373 1 1.54 0.0 1.54
406 374 1 1.54 0.77 2.31
407 375 1 2.31 0.0 2.31
408 376 1 2.31 0.77 1.54
409 377 1 1.54 0.0 3.08
410 377 2 1.54 0.77 3.85
411 378 1 2.31 0.0 3.85
412 379 1 2.31 0.77 3.08
413 380 1 1.54 0.0 4.62
414 380 2 1.54 0.77 5.390000000000001
415 381 1 2.31 0.0 5.390000000000001
416 382 1 2.31 0.77 4.62
417 383 1 1.54 0.0 6.16
418 384 1 1.54 0.77 6.93
419 385 1 2.31 0.0 6.93
420 386 1 2.31 0.77 6.16
421 387 1 1.54 0.0 7.7
422 388 1 1.54 0.77 8.47
423 389 1 2.31 0.0 8.47
424 390 1 2.31 0.77 7.7
425 391 1 1.54 0.0 9.24
426 392 1 1.54 0.77 10.01
427 393 1 2.31 0.0 10.01
428 394 1 2.31 0.77 9.24
429 395 1 1.54 0.0 10.780000000000001
430 396 1 1.54 0.77 11.55
431 397 1 2.31 0.0 11.55
432 398 1 2.31 0.77 10.780000000000001
433 399 1 1.54 0.0 12.32
434 400 1 1.54 0.77 13.09
435 401 1 2.31 0.0 13.09
436 402 1 2.31 0.77 12.32
437 403 1 1.54 0.0 13.86
438 403 2 1.54 0.77 14.629999999999999
439 404 1 2.31 0.0 14.629999999999999
440 405 1 2.31 0.77 13.86
441 406 1 1.54 1.54 0.0
442 406 2 1.54 2.31 0.77
443 407 1 2.31 1.54 0.77
444 408 1 2.31 2.31 0.0
445 409 1 1.54 1.54 1.54
446 410 1 1.54 2.31 2.31
447 411 1 2.31 1.54 2.31
448 412 1 2.31 2.31 1.54
449 413 1 1.54 1.54 3.08
450 414 1 1.54 2.31 3.85
451 415 1 2.31 1.54 3.85
452 416 1 2.31 2.31 3.08
453 417 1 1.54 1.54 4.62
454 418 1 1.54 2.31 5.390000000000001
455 419 1 2.31 1.54 5.390000000000001
456 420 1 2.31 2.31 4.62
457 421 1 1.54 1.54 6.16
458 422 1 1.54 2.31 6.93
459 423 1 2.31 1.54 6.93
460 424 1 2.31 2.31 6.16
461 425 1 1.54 1.54 7.7
462 426 1 1.54 2.31 8.47
463 427 1 2.31 1.54 8.47
464 428 1 2.31 2.31 7.7
465 429 1 1.54 1.54 9.24
466 430 1 1.54 2.31 10.01
467 431 1 2.31 1.54 10.01
468 432 1 2.31 2.31 9.24
469 433 1 1.54 1.54 10.780000000000001
470 434 1 1.54 2.31 11.55
471 435 1 2.31 1.54 11.55
472 436 1 2.31 2.31 10.780000000000001
473 437 1 1.54 1.54 12.32
474 438 1 1.54 2.31 13.09
475 439 1 2.31 1.54 13.09
476 440 1 2.31 2.31 12.32
477 441 1 1.54 1.54 13.86
478 442 1 1.54 2.31 14.629999999999999
479 443 1 2.31 1.54 14.629999999999999
480 444 1 2.31 2.31 13.86
481 445 1 1.54 3.08 0.0
482 446 1 1.54 3.85 0.77
483 447 1 2.31 3.08 0.77
484 448 1 2.31 3.85 0.0
485 449 1 1.54 3.08 1.54
486 450 1 1.54 3.85 2.31
487 451 1 2.31 3.08 2.31
488 452 1 2.31 3.85 1.54
489 453 1 1.54 3.08 3.08
490 454 1 1.54 3.85 3.85
491 455 1 2.31 3.08 3.85
492 456 1 2.31 3.85 3.08
493 457 1 1.54 3.08 4.62
494 458 1 1.54 3.85 5.390000000000001
495 459 1 2.31 3.08 5.390000000000001
496 460 1 2.31 3.85 4.62
497 461 1 1.54 3.08 6.16
498 462 1 1.54 3.85 6.93
499 463 1 2.31 3.08 6.93
500 464 1 2.31 3.85 6.16
501 465 1 1.54 3.08 7.7
502 466 1 1.54 3.85 8.47
503 467 1 2.31 3.08 8.47
504 468 1 2.31 3.85 7.7
505 469 1 1.54 3.08 9.24
506 470 1 1.54 3.85 10.01
507 471 1 2.31 3.08 10.01
508 472 1 2.31 3.85 9.24
509 473 1 1.54 3.08 10.780000000000001
510 474 1 1.54 3.85 11.55
511 475 1 2.31 3.08 11.55
512 476 1 2.31 3.85 10.780000000000001
513 477 1 1.54 3.08 12.32
514 478 1 1.54 3.85 13.09
515 479 1 2.31 3.08 13.09
516 480 1 2.31 3.85 12.32
517 481 1 1.54 3.08 13.86
518 482 1 1.54 3.85 14.629999999999999
519 483 1 2.31 3.08 14.629999999999999
520 484 1 2.31 3.85 13.86
521 485 1 1.54 4.62 0.0
522 486 1 1.54 5.390000000000001 0.77
523 487 1 2.31 4.62 0.77
524 488 1 2.31 5.390000000000001 0.0
525 489 1 1.54 4.62 1.54
526 490 1 1.54 5.390000000000001 2.31
527 491 1 2.31 4.62 2.31
528 492 1 2.31 5.390000000000001 1.54
529 493 1 1.54 4.62 3.08
530 493 2 1.54 5.390000000000001 3.85
531 494 1 2.31 4.62 3.85
532 495 1 2.31 5.390000000000001 3.08
533 496 1 1.54 4.62 4.62
534 497 1 1.54 5.390000000000001 5.390000000000001
535 498 1 2.31 4.62 5.390000000000001
536 499 1 2.31 5.390000000000001 4.62
537 500 1 1.54 4.62 6.16
538 500 2 1.54 5.390000000000001 6.93
539 501 1 2.31 4.62 6.93
540 502 1 2.31 5.390000000000001 6.16
541 503 1 1.54 4.62 7.7
542 504 1 1.54 5.390000000000001 8.47
543 505 1 2.31 4.62 8.47
544 506 1 2.31 5.390000000000001 7.7
545 507 1 1.54 4.62 9.24
546 507 2 1.54 5.390000000000001 10.01
547 508 1 2.31 4.62 10.01
548 509 1 2.31 5.390000000000001 9.24
549 510 1 1.54 4.62 10.780000000000001
550 511 1 1.54 5.390000000000001 11.55
551 512 1 2.31 4.62 11.55
552 513 1 2.31 5.390000000000001 10.780000000000001
553 514 1 1.54 4.62 12.32
554 514 2 1.54 5.390000000000001 13.09
555 515 1 2.31 4.62 13.09
556 516 1 2.31 5.390000000000001 12.32
557 517 1 1.54 4.62 13.86
558 517 2 1.54 5.390000000000001 14.629999999999999
559 518 1 2.31 4.62 14.629999999999999
560 519 1 2.31 5.390000000000001 13.86
561 520 1 1.54 6.16 0.0
562 520 2 1.54 6.93 0.77
563 521 1 2.31 6.16 0.77
564 522 1 2.31 6.93 0.0
565 523 1 1.54 6.16 1.54
566 523 2 1.54 6.93 2.31
567 524 1 2.31 6.16 2.31
568 525 1 2.31 6.93 1.54
569 526 1 1.54 6.16 3.08
570 527 1 1.54 6.93 3.85
571 528 1 2.31 6.16 3.85
572 529 1 2.31 6.93 3.08
573 530 1 1.54 6.16 4.62
574 530 2 1.54 6.93 5.390000000000001
575 531 1 2.31 6.16 5.390000000000001
576 532 1 2.31 6.93 4.62
577 533 1 1.54 6.16 6.16
578 533 2 1.54 6.93 6.93
579 534 1 2.31 6.16 6.93
580 535 1 2.31 6.93 6.16
581 536 1 1.54 6.16 7.7
582 536 2 1.54 6.93 8.47
583 537 1 2.31 6.16 8.47
584 538 1 2.31 6.93 7.7
585 539 1 1.54 6.16 9.24
586 539 2 1.54 6.93 10.01
587 540 1 2.31 6.16 10.01
588 541 1 2.31 6.93 9.24
589 542 1 1.54 6.16 10.780000000000001
590 543 1 1.54 6.93 11.55
591 544 1 2.31 6.16 11.55
592 545 1 2.31 6.93 10.780000000000001
593 546 1 1.54 6.16 12.32
594 546 2 1.54 6.93 13.09
595 547 1 2.31 6.16 13.09
596 548 1 2.31 6.93 12.32
597 549 1 1.54 6.16 13.86
598 550 1 1.54 6.93 14.629999999999999
599 551 1 2.31 6.16 14.629999999999999
600 552 1 2.31 6.93 13.86
601 553 1 1.54 7.7 0.0
602 554 1 1.54 8.47 0.77
603 555 1 2.31 7.7 0.77
604 556 1 2.31 8.47 0.0
605 557 1 1.54 7.7 1.54
606 558 1 1.54 8.47 2.31
607 559 1 2.31 7.7 2.31
608 560 1 2.31 8.47 1.54
609 561 1 1.54 7.7 3.08
610 561 2 1.54 8.47 3.85
611 562 1 2.31 7.7 3.85
612 563 1 2.31 8.47 3.08
613 564 1 1.54 7.7 4.62
614 565 1 1.54 8.47 5.390000000000001
615 566 1 2.31 7.7 5.390000000000001
616 567 1 2.31 8.47 4.62
617 568 1 1.54 7.7 6.16
618 569 1 1.54 8.47 6.93
619 570 1 2.31 7.7 6.93
620 571 1 2.31 8.47 6.16
621 572 1 1.54 7.7 7.7
622 572 2 1.54 8.47 8.47
623 573 1 2.31 7.7 8.47
624 574 1 2.31 8.47 7.7
625 575 1 1.54 7.7 9.24
626 575 2 1.54 8.47 10.01
627 576 1 2.31 7.7 10.01
628 577 1 2.31 8.47 9.24
629 578 1 1.54 7.7 10.780000000000001
630 578 2 1.54 8.47 11.55
631 579 1 2.31 7.7 11.55
632 580 1 2.31 8.47 10.780000000000001
633 581 1 1.54 7.7 12.32
634 582 1 1.54 8.47 13.09
635 583 1 2.31 7.7 13.09
636 584 1 2.31 8.47 12.32
637 585 1 1.54 7.7 13.86
638 586 1 1.54 8.47 14.629999999999999
639 587 1 2.31 7.7 14.629999999999999
640 588 1 2.31 8.47 13.86
641 589 1 1.54 9.24 0.0
642 590 1 1.54 10.01 0.77
643 591 1 2.31 9.24 0.77
644 592 1 2.31 10.01 0.0
645 593 1 1.54 9.24 1.54
646 594 1 1.54 10.01 2.31
647 595 1 2.31 9.24 2.31
648 596 1 2.31 10.01 1.54
649 597 1 1.54 9.24 3.08
650 598 1 1.54 10.01 3.85
651 599 1 2.31 9.24 3.85
652 600 1 2.31 10.01 3.08
653 601 1 1.54 9.24 4.62
654 602 1 1.54 10.01 5.390000000000001
655 603 1 2.31 9.24 5.390000000000001
656 604 1 2.31 10.01 4.62
657 605 1 1.54 9.24 6.16
658 605 2 1.54 10.01 6.93
659 606 1 2.31 9.24 6.93
660 607 1 2.31 10.01 6.16
661 608 1 1.54 9.24 7.7
662 609 1 1.54 10.01 8.47
663 610 1 2.31 9.24 8.47
664 611 1 2.31 10.01 7.7
665 612 1 1.54 9.24 9.24
666 612 2 1.54 10.01 10.01
667 613 1 2.31 9.24 10.01
668 614 1 2.31 10.01 9.24
669 615 1 1.54 9.24 10.780000000000001
670 615 2 1.54 10.01 11.55
671 616 1 2.31 9.24 11.55
672 617 1 2.31 10.01 10.780000000000001
673 618 1 1.54 9.24 12.32
674 619 1 1.54 10.01 13.09
675 620 1 2.31 9.24 13.09
676 621 1 2.31 10.01 12.32
677 622 1 1.54 9.24 13.86
678 622 2 1.54 10.01 14.629999999999999
679 623 1 2.31 9.24 14.629999999999999
680 624 1 2.31 10.01 13.86
681 625 1 1.54 10.780000000000001 0.0
682 626 1 1.54 11.55 0.77
683 627 1 2.31 10.780000000000001 0.77
684 628 1 2.31 11.55 0.0
685 629 1 1.54 10.780000000000001 1.54
686 630 1 1.54 11.55 2.31
687 631 1 2.31 10.780000000000001 2.31
688 632 1 2.31 11.55 1.54
689 633 1 1.54 10.780000000000001 3.08
690 634 1 1.54 11.55 3.85
691 635 1 2.31 10.780000000000001 3.85
692 636 1 2.31 11.55 3.08
693 637 1 1.54 10.780000000000001 4.62
694 638 1 1.54 11.55 5.390000000000001
695 639 1 2.31 10.780000000000001 5.390000000000001
696 640 1 2.31 11.55 4.62
697 641 1 1.54 10.780000000000001 6.16
698 642 1 1.54 11.55 6.93
699 643 1 2.31 10.780000000000001 6.93
700 644 1 2.31 11.55 6.16
701 645 1 1.54 10.780000000000001 7.7
702 646 1 1.54 11.55 8.47
703 647 1 2.31 10.780000000000001 8.47
704 648 1 2.31 11.55 7.7
705 649 1 1.54 10.780000000000001 9.24
706 649 2 1.54 11.55 10.01
707 650 1 2.31 10.780000000000001 10.01
708 651 1 2.31 11.55 9.24
709 652 1 1.54 10.780000000000001 10.780000000000001
710 653 1 1.54 11.55 11.55
711 654 1 2.31 10.780000000000001 11.55
712 655 1 2.31 11.55 10.780000000000001
713 656 1 1.54 10.780000000000001 12.32
714 657 1 1.54 11.55 13.09
715 658 1 2.31 10.780000000000001 13.09
716 659 1 2.31 11.55 12.32
717 660 1 1.54 10.780000000000001 13.86
718 660 2 1.54 11.55 14.629999999999999
719 661 1 2.31 10.780000000000001 14.629999999999999
720 662 1 2.31 11.55 13.86
721 663 1 1.54 12.32 0.0
722 663 2 1.54 13.09 0.77
723 664 1 2.31 12.32 0.77
724 665 1 2.31 13.09 0.0
725 666 1 1.54 12.32 1.54
726 667 1 1.54 13.09 2.31
727 668 1 2.31 12.32 2.31
728 669 1 2.31 13.09 1.54
729 670 1 1.54 12.32 3.08
730 670 2 1.54 13.09 3.85
731 671 1 2.31 12.32 3.85
732 672 1 2.31 13.09 3.08
733 673 1 1.54 12.32 4.62
734 673 2 1.54 13.09 5.390000000000001
735 674 1 2.31 12.32 5.390000000000001
736 675 1 2.31 13.09 4.62
737 676 1 1.54 12.32 6.16
738 677 1 1.54 13.09 6.93
739 678 1 2.31 12.32 6.93
740 679 1 2.31 13.09 6.16
741 680 1 1.54 12.32 7.7
742 681 1 1.54 13.09 8.47
743 682 1 2.31 12.32 8.47
744 683 1 2.31 13.09 7.7
745 684 1 1.54 12.32 9.24
746 685 1 1.54 13.09 10.01
747 686 1 2.31 12.32 10.01
748 687 1 2.31 13.09 9.24
749 688 1 1.54 12.32 10.780000000000001
750 688 2 1.54 13.09 11.55
751 689 1 2.31 12.32 11.55
752 690 1 2.31 13.09 10.780000000000001
753 691 1 1.54 12.32 12.32
754 692 1 1.54 13.09 13.09
755 693 1 2.31 12.32 13.09
756 694 1 2.31 13.09 12.32
757 695 1 1.54 12.32 13.86
758 695 2 1.54 13.09 14.629999999999999
759 696 1 2.31 12.32 14.629999999999999
760 697 1 2.31 13.09 13.86
761 698 1 1.54 13.86 0.0
762 698 2 1.54 14.629999999999999 0.77
763 699 1 2.31 13.86 0.77
764 700 1 2.31 14.629999999999999 0.0
765 701 1 1.54 13.86 1.54
766 701 2 1.54 14.629999999999999 2.31
767 702 1 2.31 13.86 2.31
768 703 1 2.31 14.629999999999999 1.54
769 704 1 1.54 13.86 3.08
770 705 1 1.54 14.629999999999999 3.85
771 706 1 2.31 13.86 3.85
772 707 1 2.31 14.629999999999999 3.08
773 708 1 1.54 13.86 4.62
774 708 2 1.54 14.629999999999999 5.390000000000001
775 709 1 2.31 13.86 5.390000000000001
776 710 1 2.31 14.629999999999999 4.62
777 711 1 1.54 13.86 6.16
778 711 2 1.54 14.629999999999999 6.93
779 712 1 2.31 13.86 6.93
780 713 1 2.31 14.629999999999999 6.16
781 714 1 1.54 13.86 7.7
782 715 1 1.54 14.629999999999999 8.47
783 716 1 2.31 13.86 8.47
784 717 1 2.31 14.629999999999999 7.7
785 718 1 1.54 13.86 9.24
786 718 2 1.54 14.629999999999999 10.01
787 719 1 2.31 13.86 10.01
788 720 1 2.31 14.629999999999999 9.24
789 721 1 1.54 13.86 10.780000000000001
790 721 2 1.54 14.629999999999999 11.55
791 722 1 2.31 13.86 11.55
792 723 1 2.31 14.629999999999999 10.780000000000001
793 724 1 1.54 13.86 12.32
794 724 2 1.54 14.629999999999999 13.09
795 725 1 2.31 13.86 13.09
796 726 1 2.31 14.629999999999999 12.32
797 727 1 1.54 13.86 13.86
798 727 2 1.54 14.629999999999999 14.629999999999999
799 728 1 2.31 13.86 14.629999999999999
800 729 1 2.31 14.629999999999999 13.86
801 730 1 3.08 0.0 0.0
802 731 1 3.08 0.77 0.77
803 732 1 3.85 0.0 0.77
804 733 1 3.85 0.77 0.0
805 734 1 3.08 0.0 1.54
806 735 1 3.08 0.77 2.31
807 736 1 3.85 0.0 2.31
808 737 1 3.85 0.77 1.54
809 738 1 3.08 0.0 3.08
810 738 2 3.08 0.77 3.85
811 739 1 3.85 0.0 3.85
812 740 1 3.85 0.77 3.08
813 741 1 3.08 0.0 4.62
814 742 1 3.08 0.77 5.390000000000001
815 743 1 3.85 0.0 5.390000000000001
816 744 1 3.85 0.77 4.62
817 745 1 3.08 0.0 6.16
818 746 1 3.08 0.77 6.93
819 747 1 3.85 0.0 6.93
820 748 1 3.85 0.77 6.16
821 749 1 3.08 0.0 7.7
822 750 1 3.08 0.77 8.47
823 751 1 3.85 0.0 8.47
824 752 1 3.85 0.77 7.7
825 753 1 3.08 0.0 9.24
826 754 1 3.08 0.77 10.01
827 755 1 3.85 0.0 10.01
828 756 1 3.85 0.77 9.24
829 757 1 3.08 0.0 10.780000000000001
830 758 1 3.08 0.77 11.55
831 759 1 3.85 0.0 11.55
832 760 1 3.85 0.77 10.780000000000001
833 761 1 3.08 0.0 12.32
834 762 1 3.08 0.77 13.09
835 763 1 3.85 0.0 13.09
836 764 1 3.85 0.77 12.32
837 765 1 3.08 0.0 13.86
838 765 2 3.08 0.77 14.629999999999999
839 766 1 3.85 0.0 14.629999999999999
840 767 1 3.85 0.77 13.86
841 768 1 3.08 1.54 0.0
842 769 1 3.08 2.31 0.77
843 770 1 3.85 1.54 0.77
844 771 1 3.85 2.31 0.0
845 772 1 3.08 1.54 1.54
846 773 1 3.08 2.31 2.31
847 774 1 3.85 1.54 2.31
848 775 1 3.85 2.31 1.54
849 776 1 3.08 1.54 3.08
850 777 1 3.08 2.31 3.85
851 778 1 3.85 1.54 3.85
852 779 1 3.85 2.31 3.08
853 780 1 3.08 1.54 4.62
854 781 1 3.08 2.31 5.390000000000001
855 782 1 3.85 1.54 5.390000000000001
856 783 1 3.85 2.31 4.62
857 784 1 3.08 1.54 6.16
858 784 2 3.08 2.31 6.93
859 785 1 3.85 1.54 6.93
860 786 1 3.85 2.31 6.16
861 787 1 3.08 1.54 7.7
862 788 1 3.08 2.31 8.47
863 789 1 3.85 1.54 8.47
864 790 1 3.85 2.31 7.7
865 791 1 3.08 1.54 9.24
866 791 2 3.08 2.31 10.01
867 792 1 3.85 1.54 10.01
868 793 1 3.85 2.31 9.24
869 794 1 3.08 1.54 10.780000000000001
870 794 2 3.08 2.31 11.55
871 795 1 3.85 1.54 11.55
872 796 1 3.85 2.31 10.780000000000001
873 797 1 3.08 1.54 12.32
874 798 1 3.08 2.31 13.09
875 799 1 3.85 1.54 13.09
876 800 1 3.85 2.31 12.32
877 801 1 3.08 1.54 13.86
878 802 1 3.08 2.31 14.629999999999999
879 803 1 3.85 1.54 14.629999999999999
880 804 1 3.85 2.31 13.86
881 805 1 3.08 3.08 0.0
882 805 2 3.08 3.85 0.77
883 806 1 3.85 3.08 0.77
884 807 1 3.85 3.85 0.0
885 808 1 3.08 3.08 1.54
886 808 2 3.08 3.85 2.31
887 809 1 3.85 3.08 2.31
888 810 1 3.85 3.85 1.54
889 811 1 3.08 3.08 3.08
890 811 2 3.08 3.85 3.85
891 812 1 3.85 3.08 3.85
892 813 1 3.85 3.85 3.08
893 814 1 3.08 3.08 4.62
894 814 2 3.08 3.85 5.390000000000001
895 815 1 3.85 3.08 5.390000000000001
896 816 1 3.85 3.85 4.62
897 817 1 3.08 3.08 6.16
898 817 2 3.08 3.85 6.93
899 818 1 3.85 3.08 6.93
900 819 1 3.85 3.85 6.16
901 820 1 3.08 3.08 7.7
902 821 1 3.08 3.85 8.47
903 822 1 3.85 3.08 8.47
904 823 1 3.85 3.85 7.7
905 824 1 3.08 3.08 9.24
906 824 2 3.08 3.85 10.01
907 825 1 3.85 3.08 10.01
908 826 1 3.85 3.85 9.24
909 827 1 3.08 3.08 10.780000000000001
910 828 1 3.08 3.85 11.55
911 829 1 3.85 3.08 11.55
912 830 1 3.85 3.85 10.780000000000001
913 831 1 3.08 3.08 12.32
914 832 1 3.08 3.85 13.09
915 833 1 3.85 3.08 13.09
916 834 1 3.85 3.85 12.32
917 835 1 3.08 3.08 13.86
918 835 2 3.08 3.85 14.629999999999999
919 836 1 3.85 3.08 14.629999999999999
920 837 1 3.85 3.85 13.86
921 838 1 3.08 4.62 0.0
922 839 1 3.08 5.390000000000001 0.77
923 840 1 3.85 4.62 0.77
924 841 1 3.85 5.390000000000001 0.0
925 842 1 3.08 4.62 1.54
926 843 1 3.08 5.390000000000001 2.31
927 844 1 3.85 4.62 2.31
928 845 1 3.85 5.390000000000001 1.54
929 846 1 3.08 4.62 3.08
930 846 2 3.08 5.390000000000001 3.85
931 847 1 3.85 4.62 3.85
932 848 1 3.85 5.390000000000001 3.08
933 849 1 3.08 4.62 4.62
934 850 1 3.08 5.390000000000001 5.390000000000001
935 851 1 3.85 4.62 5.390000000000001
936 852 1 3.85 5.390000000000001 4.62
937 853 1 3.08 4.62 6.16
938 854 1 3.08 5.390000000000001 6.93
939 855 1 3.85 4.62 6.93
940 856 1 3.85 5.390000000000001 6.16
941 857 1 3.08 4.62 7.7
942 858 1 3.08 5.390000000000001 8.47
943 859 1 3.85 4.62 8.47
944 860 1 3.85 5.390000000000001 7.7
945 861 1 3.08 4.62 9.24
946 862 1 3.08 5.390000000000001 10.01
947 863 1 3.85 4.62 10.01
948 864 1 3.85 5.390000000000001 9.24
949 865 1 3.08 4.62 10.780000000000001
950 866 1 3.08 5.390000000000001 11.55
951 867 1 3.85 4.62 11.55
952 868 1 3.85 5.390000000000001 10.780000000000001
953 869 1 3.08 4.62 12.32
954 870 1 3.08 5.390000000000001 13.09
955 871 1 3.85 4.62 13.09
956 872 1 3.85 5.390000000000001 12.32
957 873 1 3.08 4.62 13.86
958 874 1 3.08 5.390000000000001 14.629999999999999
959 875 1 3.85 4.62 14.629999999999999
960 876 1 3.85 5.390000000000001 13.86
961 877 1 3.08 6.16 0.0
962 878 1 3.08 6.93 0.77
963 879 1 3.85 6.16 0.77
964 880 1 3.85 6.93 0.0
965 881 1 3.08 6.16 1.54
966 882 1 3.08 6.93 2.31
967 883 1 3.85 6.16 2.31
968 884 1 3.85 6.93 1.54
969 885 1 3.08 6.16 3.08
970 885 2 3.08 6.93 3.85
971 886 1 3.85 6.16 3.85
972 887 1 3.85 6.93 3.08
973 888 1 3.08 6.16 4.62
974 889 1 3.08 6.93 5.390000000000001
975 890 1 3.85 6.16 5.390000000000001
976 891 1 3.85 6.93 4.62
977 892 1 3.08 6.16 6.16
978 893 1 3.08 6.93 6.93
979 894 1 3.85 6.16 6.93
980 895 1 3.85 6.93 6.16
981 896 1 3.08 6.16 7.7
982 897 1 3.08 6.93 8.47
983 898 1 3.85 6.16 8.47
984 899 1 3.85 6.93 7.7
985 900 1 3.08 6.16 9.24
986 901 1 3.08 6.93 10.01
987 902 1 3.85 6.16 10.01
988 903 1 3.85 6.93 9.24
989 904 1 3.08 6.16 10.780000000000001
990 904 2 3.08 6.93 11.55
991 905 1 3.85 6.16 11.55
992 906 1 3.85 6.93 10.780000000000001
993 907 1 3.08 6.16 12.32
994 907 2 3.08 6.93 13.09
995 908 1 3.85 6.16 13.09
996 909 1 3.85 6.93 12.32
997 910 1 3.08 6.16 13.86
998 910 2 3.08 6.93 14.629999999999999
999 911 1 3.85 6.16 14.629999999999999
1000 912 1 3.85 6.93 13.86
1001 913 1 3.08 7.7 0.0
1002 914 1 3.08 8.47 0.77
1003 915 1 3.85 7.7 0.77
1004 916 1 3.85 8.47 0.0
1005 917 1 3.08 7.7 1.54
1006 918 1 3.08 8.47 2.31
1007 919 1 3.85 7.7 2.31
1008 920 1 3.85 8.47 1.54
1009 921 1 3.08 7.7 3.08
1010 922 1 3.08 8.47 3.85
1011 923 1 3.85 7.7 3.85
1012 924 1 3.85 8.47 3.08
1013 925 1 3.08 7.7 4.62
1014 926 1 3.08 8.47 5.390000000000001
1015 927 1 3.85 7.7 5.390000000000001
1016 928 1 3.85 8.47 4.62
1017 929 1 3.08 7.7 6.16
1018 930 1 3.08 8.47 6.93
1019 931 1 3.85 7.7 6.93
1020 932 1 3.85 8.47 6.16
1021 933 1 3.08 7.7 7.7
1022 933 2 3.08 8.47 8.47
1023 934 1 3.85 7.7 8.47
1024 935 1 3.85 8.47 7.7
1025 936 1 3.08 7.7 9.24
1026 936 2 3.08 8.47 10.01
1027 937 1 3.85 7.7 10.01
1028 938 1 3.85 8.47 9.24
1029 939 1 3.08 7.7 10.780000000000001
1030 939 2 3.08 8.47 11.55
1031 940 1 3.85 7.7 11.55
1032 941 1 3.85 8.47 10.780000000000001
1033 942 1 3.08 7.7 12.32
1034 943 1 3.08 8.47 13.09
1035 944 1 3.85 7.7 13.09
1036 945 1 3.85 8.47 12.32
1037 946 1 3.08 7.7 13.86
1038 947 1 3.08 8.47 14.629999999999999
1039 948 1 3.85 7.7 14.629999999999999