Position Data

4000 atoms
263 bonds

2 atom types
1 bond types

0.00 17.00 xlo xhi
0.00 17.00 ylo yhi
0.00 17.00 zlo zhi

Atoms

1 0 1 0.0 0.0 0.0
2 1 1 0.0 0.85 0.85
3 2 1 0.85 0.0 0.85
4 3 1 0.85 0.85 0.0
5 4 1 0.0 0.0 1.7
6 5 1 0.0 0.85 2.55
7 6 1 0.85 0.0 2.55
8 7 1 0.85 0.85 1.7
9 8 1 0.0 0.0 3.4
10 9 1 0.0 0.85 4.25
11 10 1 0.85 0.0 4.25
12 11 1 0.85 0.85 3.4
13 12 1 0.0 0.0 5.1
14 13 1 0.0 0.85 5.949999999999999
15 14 1 0.85 0.0 5.949999999999999
16 15 1 0.85 0.85 5.1
17 16 1 0.0 0.0 6.8
18 17 1 0.0 0.85 7.6499999999999995
19 18 1 0.85 0.0 7.6499999999999995
20 19 1 0.85 0.85 6.8
21 20 1 0.0 0.0 8.5
22 20 2 0.0 0.85 9.35
23 21 1 0.85 0.0 9.35
24 22 1 0.85 0.85 8.5
25 23 1 0.0 0.0 10.2
26 24 1 0.0 0.85 11.049999999999999
27 25 1 0.85 0.0 11.049999999999999
28 26 1 0.85 0.85 10.2
29 27 1 0.0 0.0 11.9
30 28 1 0.0 0.85 12.75
31 29 1 0.85 0.0 12.75
32 30 1 0.85 0.85 11.9
33 31 1 0.0 0.0 13.6
34 31 2 0.0 0.85 14.45
35 32 1 0.85 0.0 14.45
36 33 1 0.85 0.85 13.6
37 34 1 0.0 0.0 15.299999999999999
38 34 2 0.0 0.85 16.15
39 35 1 0.85 0.0 16.15
40 36 1 0.85 0.85 15.299999999999999
41 37 1 0.0 1.7 0.0
42 38 1 0.0 2.55 0.85
43 39 1 0.85 1.7 0.85
44 40 1 0.85 2.55 0.0
45 41 1 0.0 1.7 1.7
46 41 2 0.0 2.55 2.55
47 42 1 0.85 1.7 2.55
48 43 1 0.85 2.55 1.7
49 44 1 0.0 1.7 3.4
50 44 2 0.0 2.55 4.25
51 45 1 0.85 1.7 4.25
52 46 1 0.85 2.55 3.4
53 47 1 0.0 1.7 5.1
54 47 2 0.0 2.55 5.949999999999999
55 48 1 0.85 1.7 5.949999999999999
56 49 1 0.85 2.55 5.1
57 50 1 0.0 1.7 6.8
58 51 1 0.0 2.55 7.6499999999999995
59 52 1 0.85 1.7 7.6499999999999995
60 53 1 0.85 2.55 6.8
61 54 1 0.0 1.7 8.5
62 55 1 0.0 2.55 9.35
63 56 1 0.85 1.7 9.35
64 57 1 0.85 2.55 8.5
65 58 1 0.0 1.7 10.2
66 59 1 0.0 2.55 11.049999999999999
67 60 1 0.85 1.7 11.049999999999999
68 61 1 0.85 2.55 10.2
69 62 1 0.0 1.7 11.9
70 62 2 0.0 2.55 12.75
71 63 1 0.85 1.7 12.75
72 64 1 0.85 2.55 11.9
73 65 1 0.0 1.7 13.6
74 66 1 0.0 2.55 14.45
75 67 1 0.85 1.7 14.45
76 68 1 0.85 2.55 13.6
77 69 1 0.0 1.7 15.299999999999999
78 70 1 0.0 2.55 16.15
79 71 1 0.85 1.7 16.15
80 72 1 0.85 2.55 15.299999999999999
81 73 1 0.0 3.4 0.0
82 74 1 0.0 4.25 0.85
83 75 1 0.85 3.4 0.85
84 76 1 0.85 4.25 0.0
85 77 1 0.0 3.4 1.7
86 78 1 0.0 4.25 2.55
87 79 1 0.85 3.4 2.55
88 80 1 0.85 4.25 1.7
89 81 1 0.0 3.4 3.4
90 81 2 0.0 4.25 4.25
91 82 1 0.85 3.4 4.25
92 83 1 0.85 4.25 3.4
93 84 1 0.0 3.4 5.1
94 85 1 0.0 4.25 5.949999999999999
95 86 1 0.85 3.4 5.949999999999999
96 87 1 0.85 4.25 5.1
97 88 1 0.0 3.4 6.8
98 89 1 0.0 4.25 7.6499999999999995
99 90 1 0.85 3.4 7.6499999999999995
100 91 1 0.85 4.25 6.8
101 92 1 0.0 3.4 8.5
102 92 2 0.0 4.25 9.35
103 93 1 0.85 3.4 9.35
104 94 1 0.85 4.25 8.5
105 95 1 0.0 3.4 10.2
106 96 1 0.0 4.25 11.049999999999999
107 97 1 0.85 3.4 11.049999999999999
108 98 1 0.85 4.25 10.2
109 99 1 0.0 3.4 11.9
110 100 1 0.0 4.25 12.75
111 101 1 0.85 3.4 12.75
112 102 1 0.85 4.25 11.9
113 103 1 0.0 3.4 13.6
114 104 1 0.0 4.25 14.45
115 105 1 0.85 3.4 14.45
116 106 1 0.85 4.25 13.6
117 107 1 0.0 3.4 15.299999999999999
118 107 2 0.0 4.25 16.15
119 108 1 0.85 3.4 16.15
120 109 1 0.85 4.25 15.299999999999999
121 110 1 0.0 5.1 0.0
122 111 1 0.0 5.949999999999999 0.85
123 112 1 0.85 5.1 0.85
124 113 1 0.85 5.949999999999999 0.0
125 114 1 0.0 5.1 1.7
126 114 2 0.0 5.949999999999999 2.55
127 115 1 0.85 5.1 2.55
128 116 1 0.85 5.949999999999999 1.7
129 117 1 0.0 5.1 3.4
130 118 1 0.0 5.949999999999999 4.25
131 119 1 0.85 5.1 4.25
132 120 1 0.85 5.949999999999999 3.4
133 121 1 0.0 5.1 5.1
134 122 1 0.0 5.949999999999999 5.949999999999999
135 123 1 0.85 5.1 5.949999999999999
136 124 1 0.85 5.949999999999999 5.1
137 125 1 0.0 5.1 6.8
138 126 1 0.0 5.949999999999999 7.6499999999999995
139 127 1 0.85 5.1 7.6499999999999995
140 128 1 0.85 5.949999999999999 6.8
141 129 1 0.0 5.1 8.5
142 130 1 0.0 5.949999999999999 9.35
143 131 1 0.85 5.1 9.35
144 132 1 0.85 5.949999999999999 8.5
145 133 1 0.0 5.1 10.2
146 133 2 0.0 5.949999999999999 11.049999999999999
147 134 1 0.85 5.1 11.049999999999999
148 135 1 0.85 5.949999999999999 10.2
149 136 1 0.0 5.1 11.9
150 136 2 0.0 5.949999999999999 12.75
151 137 1 0.85 5.1 12.75
152 138 1 0.85 5.949999999999999 11.9
153 139 1 0.0 5.1 13.6
154 140 1 0.0 5.949999999999999 14.45
155 141 1 0.85 5.1 14.45
156 142 1 0.85 5.949999999999999 13.6
157 143 1 0.0 5.1 15.299999999999999
158 144 1 0.0 5.949999999999999 16.15
159 145 1 0.85 5.1 16.15
160 146 1 0.85 5.949999999999999 15.299999999999999
161 147 1 0.0 6.8 0.0
162 148 1 0.0 7.6499999999999995 0.85
163 149 1 0.85 6.8 0.85
164 150 1 0.85 7.6499999999999995 0.0
165 151 1 0.0 6.8 1.7
166 152 1 0.0 7.6499999999999995 2.55
167 153 1 0.85 6.8 2.55
168 154 1 0.85 7.6499999999999995 1.7
169 155 1 0.0 6.8 3.4
170 155 2 0.0 7.6499999999999995 4.25
171 156 1 0.85 6.8 4.25
172 157 1 0.85 7.6499999999999995 3.4
173 158 1 0.0 6.8 5.1
174 159 1 0.0 7.6499999999999995 5.949999999999999
175 160 1 0.85 6.8 5.949999999999999
176 161 1 0.85 7.6499999999999995 5.1
177 162 1 0.0 6.8 6.8
178 163 1 0.0 7.6499999999999995 7.6499999999999995
179 164 1 0.85 6.8 7.6499999999999995
180 165 1 0.85 7.6499999999999995 6.8
181 166 1 0.0 6.8 8.5
182 167 1 0.0 7.6499999999999995 9.35
183 168 1 0.85 6.8 9.35
184 169 1 0.85 7.6499999999999995 8.5
185 170 1 0.0 6.8 10.2
186 171 1 0.0 7.6499999999999995 11.049999999999999
187 172 1 0.85 6.8 11.049999999999999
188 173 1 0.85 7.6499999999999995 10.2
189 174 1 0.0 6.8 11.9
190 175 1 0.0 7.6499999999999995 12.75
191 176 1 0.85 6.8 12.75
192 177 1 0.85 7.6499999999999995 11.9
193 178 1 0.0 6.8 13.6
194 179 1 0.0 7.6499999999999995 14.45
195 180 1 0.85 6.8 14.45
196 181 1 0.85 7.6499999999999995 13.6
197 182 1 0.0 6.8 15.299999999999999
198 183 1 0.0 7.6499999999999995 16.15
199 184 1 0.85 6.8 16.15
200 185 1 0.85 7.6499999999999995 15.299999999999999
201 186 1 0.0 8.5 0.0
202 187 1 0.0 9.35 0.85
203 188 1 0.85 8.5 0.85
204 189 1 0.85 9.35 0.0
205 190 1 0.0 8.5 1.7
206 191 1 0.0 9.35 2.55
207 192 1 0.85 8.5 2.55
208 193 1 0.85 9.35 1.7
209 194 1 0.0 8.5 3.4
210 195 1 0.0 9.35 4.25
211 196 1 0.85 8.5 4.25
212 197 1 0.85 9.35 3.4
213 198 1 0.0 8.5 5.1
214 199 1 0.0 9.35 5.949999999999999
215 200 1 0.85 8.5 5.949999999999999
216 201 1 0.85 9.35 5.1
217 202 1 0.0 8.5 6.8
218 203 1 0.0 9.35 7.6499999999999995
219 204 1 0.85 8.5 7.6499999999999995
220 205 1 0.85 9.35 6.8
221 206 1 0.0 8.5 8.5
222 207 1 0.0 9.35 9.35
223 208 1 0.85 8.5 9.35
224 209 1 0.85 9.35 8.5
225 210 1 0.0 8.5 10.2
226 211 1 0.0 9.35 11.049999999999999
227 212 1 0.85 8.5 11.049999999999999
228 213 1 0.85 9.35 10.2
229 214 1 0.0 8.5 11.9
230 215 1 0.0 9.35 12.75
231 216 1 0.85 8.5 12.75
232 217 1 0.85 9.35 11.9
233 218 1 0.0 8.5 13.6
234 219 1 0.0 9.35 14.45
235 220 1 0.85 8.5 14.45
236 221 1 0.85 9.35 13.6
237 222 1 0.0 8.5 15.299999999999999
238 222 2 0.0 9.35 16.15
239 223 1 0.85 8.5 16.15
240 224 1 0.85 9.35 15.299999999999999
241 225 1 0.0 10.2 0.0
242 226 1 0.0 11.049999999999999 0.85
243 227 1 0.85 10.2 0.85
244 228 1 0.85 11.049999999999999 0.0
245 229 1 0.0 10.2 1.7
246 230 1 0.0 11.049999999999999 2.55
247 231 1 0.85 10.2 2.55
248 232 1 0.85 11.049999999999999 1.7
249 233 1 0.0 10.2 3.4
250 234 1 0.0 11.049999999999999 4.25
251 235 1 0.85 10.2 4.25
252 236 1 0.85 11.049999999999999 3.4
253 237 1 0.0 10.2 5.1
254 238 1 0.0 11.049999999999999 5.949999999999999
255 239 1 0.85 10.2 5.949999999999999
256 240 1 0.85 11.049999999999999 5.1
257 241 1 0.0 10.2 6.8
258 242 1 0.0 11.049999999999999 7.6499999999999995
259 243 1 0.85 10.2 7.6499999999999995
260 244 1 0.85 11.049999999999999 6.8
261 245 1 0.0 10.2 8.5
262 246 1 0.0 11.049999999999999 9.35
263 247 1 0.85 10.2 9.35
264 248 1 0.85 11.049999999999999 8.5
265 249 1 0.0 10.2 10.2
266 249 2 0.0 11.049999999999999 11.049999999999999
267 250 1 0.85 10.2 11.049999999999999
268 251 1 0.85 11.049999999999999 10.2
269 252 1 0.0 10.2 11.9
270 252 2 0.0 11.049999999999999 12.75
271 253 1 0.85 10.2 12.75
272 254 1 0.85 11.049999999999999 11.9
273 255 1 0.0 10.2 13.6
274 256 1 0.0 11.049999999999999 14.45
275 257 1 0.85 10.2 14.45
276 258 1 0.85 11.049999999999999 13.6
277 259 1 0.0 10.2 15.299999999999999
278 259 2 0.0 11.049999999999999 16.15
279 260 1 0.85 10.2 16.15
280 261 1 0.85 11.049999999999999 15.299999999999999
281 262 1 0.0 11.9 0.0
282 263 1 0.0 12.75 0.85
283 264 1 0.85 11.9 0.85
284 265 1 0.85 12.75 0.0
285 266 1 0.0 11.9 1.7
286 267 1 0.0 12.75 2.55
287 268 1 0.85 11.9 2.55
288 269 1 0.85 12.75 1.7
289 270 1 0.0 11.9 3.4
290 271 1 0.0 12.75 4.25
291 272 1 0.85 11.9 4.25
292 273 1 0.85 12.75 3.4
293 274 1 0.0 11.9 5.1
294 275 1 0.0 12.75 5.949999999999999
295 276 1 0.85 11.9 5.949999999999999
296 277 1 0.85 12.75 5.1
297 278 1 0.0 11.9 6.8
298 279 1 0.0 12.75 7.6499999999999995
299 280 1 0.85 11.9 7.6499999999999995
300 281 1 0.85 12.75 6.8
301 282 1 0.0 11.9 8.5
302 283 1 0.0 12.75 9.35
303 284 1 0.85 11.9 9.35
304 285 1 0.85 12.75 8.5
305 286 1 0.0 11.9 10.2
306 287 1 0.0 12.75 11.049999999999999
307 288 1 0.85 11.9 11.049999999999999
308 289 1 0.85 12.75 10.2
309 290 1 0.0 11.9 11.9
310 291 1 0.0 12.75 12.75
311 292 1 0.85 11.9 12.75
312 293 1 0.85 12.75 11.9
313 294 1 0.0 11.9 13.6
314 295 1 0.0 12.75 14.45
315 296 1 0.85 11.9 14.45
316 297 1 0.85 12.75 13.6
317 298 1 0.0 11.9 15.299999999999999
318 299 1 0.0 12.75 16.15
319 300 1 0.85 11.9 16.15
320 301 1 0.85 12.75 15.299999999999999
321 302 1 0.0 13.6 0.0
322 302 2 0.0 14.45 0.85
323 303 1 0.85 13.6 0.85
324 304 1 0.85 14.45 0.0
325 305 1 0.0 13.6 1.7
326 306 1 0.0 14.45 2.55
327 307 1 0.85 13.6 2.55
328 308 1 0.85 14.45 1.7
329 309 1 0.0 13.6 3.4
330 310 1 0.0 14.45 4.25
331 311 1 0.85 13.6 4.25
332 312 1 0.85 14.45 3.4
333 313 1 0.0 13.6 5.1
334 314 1 0.0 14.45 5.949999999999999
335 315 1 0.85 13.6 5.949999999999999
336 316 1 0.85 14.45 5.1
337 317 1 0.0 13.6 6.8
338 317 2 0.0 14.45 7.6499999999999995
339 318 1 0.85 13.6 7.6499999999999995
340 319 1 0.85 14.45 6.8
341 320 1 0.0 13.6 8.5
342 320 2 0.0 14.45 9.35
343 321 1 0.85 13.6 9.35
344 322 1 0.85 14.45 8.5
345 323 1 0.0 13.6 10.2
346 324 1 0.0 14.45 11.049999999999999
347 325 1 0.85 13.6 11.049999999999999
348 326 1 0.85 14.45 10.2
349 327 1 0.0 13.6 11.9
350 328 1 0.0 14.45 12.75
351 329 1 0.85 13.6 12.75
352 330 1 0.85 14.45 11.9
353 331 1 0.0 13.6 13.6
354 331 2 0.0 14.45 14.45
355 332 1 0.85 13.6 14.45
356 333 1 0.85 14.45 13.6
357 334 1 0.0 13.6 15.299999999999999
358 335 1 0.0 14.45 16.15
359 336 1 0.85 13.6 16.15
360 337 1 0.85 14.45 15.299999999999999
361 338 1 0.0 15.299999999999999 0.0
362 339 1 0.0 16.15 0.85
363 340 1 0.85 15.299999999999999 0.85
364 341 1 0.85 16.15 0.0
365 342 1 0.0 15.299999999999999 1.7
366 343 1 0.0 16.15 2.55
367 344 1 0.85 15.299999999999999 2.55
368 345 1 0.85 16.15 1.7
369 346 1 0.0 15.299999999999999 3.4
370 347 1 0.0 16.15 4.25
371 348 1 0.85 15.299999999999999 4.25
372 349 1 0.85 16.15 3.4
373 350 1 0.0 15.299999999999999 5.1
374 351 1 0.0 16.15 5.949999999999999
375 352 1 0.85 15.299999999999999 5.949999999999999
376 353 1 0.85 16.15 5.1
377 354 1 0.0 15.299999999999999 6.8
378 355 1 0.0 16.15 7.6499999999999995
379 356 1 0.85 15.299999999999999 7.6499999999999995
380 357 1 0.85 16.15 6.8
381 358 1 0.0 15.299999999999999 8.5
382 359 1 0.0 16.15 9.35
383 360 1 0.85 15.299999999999999 9.35
384 361 1 0.85 16.15 8.5
385 362 1 0.0 15.299999999999999 10.2
386 363 1 0.0 16.15 11.049999999999999
387 364 1 0.85 15.299999999999999 11.049999999999999
388 365 1 0.85 16.15 10.2
389 366 1 0.0 15.299999999999999 11.9
390 367 1 0.0 16.15 12.75
391 368 1 0.85 15.299999999999999 12.75
392 369 1 0.85 16.15 11.9
393 370 1 0.0 15.299999999999999 13.6
394 371 1 0.0 16.15 14.45
395 372 1 0.85 15.299999999999999 14.45
396 373 1 0.85 16.15 13.6
397 374 1 0.0 15.299999999999999 15.299999999999999
398 375 1 0.0 16.15 16.15
399 376 1 0.85 15.299999999999999 16.15
400 377 1 0.85 16.15 15.299999999999999
401 378 1 1.7 0.0 0.0
402 379 1 1.7 0.85 0.85
403 380 1 2.55 0.0 0.85
404 381 1 2.55 0.85 0.0
405 382 1 1.7 0.0 1.7
406 383 1 1.7 0.85 2.55
407 384 1 2.55 0.0 2.55
408 385 1 2.55 0.85 1.7
409 386 1 1.7 0.0 3.4
410 386 2 1.7 0.85 4.25
411 387 1 2.55 0.0 4.25
412 388 1 2.55 0.85 3.4
413 389 1 1.7 0.0 5.1
414 389 2 1.7 0.85 5.949999999999999
415 390 1 2.55 0.0 5.949999999999999
416 391 1 2.55 0.85 5.1
417 392 1 1.7 0.0 6.8
418 393 1 1.7 0.85 7.6499999999999995
419 394 1 2.55 0.0 7.6499999999999995
420 395 1 2.55 0.85 6.8
421 396 1 1.7 0.0 8.5
422 397 1 1.7 0.85 9.35
423 398 1 2.55 0.0 9.35
424 399 1 2.55 0.85 8.5
425 400 1 1.7 0.0 10.2
426 401 1 1.7 0.85 11.049999999999999
427 402 1 2.55 0.0 11.049999999999999
428 403 1 2.55 0.85 10.2
429 404 1 1.7 0.0 11.9
430 404 2 1.7 0.85 12.75
431 405 1 2.55 0.0 12.75
432 406 1 2.55 0.85 11.9
433 407 1 1.7 0.0 13.6
434 408 1 1.7 0.85 14.45
435 409 1 2.55 0.0 14.45
436 410 1 2.55 0.85 13.6
437 411 1 1.7 0.0 15.299999999999999
438 411 2 1.7 0.85 16.15
439 412 1 2.55 0.0 16.15
440 413 1 2.55 0.85 15.299999999999999
441 414 1 1.7 1.7 0.0
442 415 1 1.7 2.55 0.85
443 416 1 2.55 1.7 0.85
444 417 1 2.55 2.55 0.0
445 418 1 1.7 1.7 1.7
446 418 2 1.7 2.55 2.55
447 419 1 2.55 1.7 2.55
448 420 1 2.55 2.55 1.7
449 421 1 1.7 1.7 3.4
450 422 1 1.7 2.55 4.25
451 423 1 2.55 1.7 4.25
452 424 1 2.55 2.55 3.4
453 425 1 1.7 1.7 5.1
454 426 1 1.7 2.55 5.949999999999999
455 427 1 2.55 1.7 5.949999999999999
456 428 1 2.55 2.55 5.1
457 429 1 1.7 1.7 6.8
458 430 1 1.7 2.55 7.6499999999999995
459 431 1 2.55 1.7 7.6499999999999995
460 432 1 2.55 2.55 6.8
461 433 1 1.7 1.7 8.5
462 433 2 1.7 2.55 9.35
463 434 1 2.55 1.7 9.35
464 435 1 2.55 2.55 8.5
465 436 1 1.7 1.7 10.2
466 437 1 1.7 2.55 11.049999999999999
467 438 1 2.55 1.7 11.049999999999999
468 439 1 2.55 2.55 10.2
469 440 1 1.7 1.7 11.9
470 441 1 1.7 2.55 12.75
471 442 1 2.55 1.7 12.75
472 443 1 2.55 2.55 11.9
473 444 1 1.7 1.7 13.6
474 445 1 1.7 2.55 14.45
475 446 1 2.55 1.7 14.45
476 447 1 2.55 2.55 13.6
477 448 1 1.7 1.7 15.299999999999999
478 448 2 1.7 2.55 16.15
479 449 1 2.55 1.7 16.15
480 450 1 2.55 2.55 15.299999999999999
481 451 1 1.7 3.4 0.0
482 452 1 1.7 4.25 0.85
483 453 1 2.55 3.4 0.85
484 454 1 2.55 4.25 0.0
485 455 1 1.7 3.4 1.7
486 456 1 1.7 4.25 2.55
487 457 1 2.55 3.4 2.55
488 458 1 2.55 4.25 1.7
489 459 1 1.7 3.4 3.4
490 460 1 1.7 4.25 4.25
491 461 1 2.55 3.4 4.25
492 462 1 2.55 4.25 3.4
493 463 1 1.7 3.4 5.1
494 464 1 1.7 4.25 5.949999999999999
495 465 1 2.55 3.4 5.949999999999999
496 466 1 2.55 4.25 5.1
497 467 1 1.7 3.4 6.8
498 467 2 1.7 4.25 7.6499999999999995
499 468 1 2.55 3.4 7.6499999999999995
500 469 1 2.55 4.25 6.8
501 470 1 1.7 3.4 8.5
502 471 1 1.7 4.25 9.35
503 472 1 2.55 3.4 9.35
504 473 1 2.55 4.25 8.5
505 474 1 1.7 3.4 10.2
506 475 1 1.7 4.25 11.049999999999999
507 476 1 2.55 3.4 11.049999999999999
508 477 1 2.55 4.25 10.2
509 478 1 1.7 3.4 11.9
510 479 1 1.7 4.25 12.75
511 480 1 2.55 3.4 12.75
512 481 1 2.55 4.25 11.9
513 482 1 1.7 3.4 13.6
514 482 2 1.7 4.25 14.45
515 483 1 2.55 3.4 14.45
516 484 1 2.55 4.25 13.6
517 485 1 1.7 3.4 15.299999999999999
518 485 2 1.7 4.25 16.15
519 486 1 2.55 3.4 16.15
520 487 1 2.55 4.25 15.299999999999999
521 488 1 1.7 5.1 0.0
522 489 1 1.7 5.949999999999999 0.85
523 490 1 2.55 5.1 0.85
524 491 1 2.55 5.949999999999999 0.0
525 492 1 1.7 5.1 1.7
526 493 1 1.7 5.949999999999999 2.55
527 494 1 2.55 5.1 2.55
528 495 1 2.55 5.949999999999999 1.7
529 496 1 1.7 5.1 3.4
530 497 1 1.7 5.949999999999999 4.25
531 498 1 2.55 5.1 4.25
532 499 1 2.55 5.949999999999999 3.4
533 500 1 1.7 5.1 5.1
534 501 1 1.7 5.949999999999999 5.949999999999999
535 502 1 2.55 5.1 5.949999999999999
536 503 1 2.55 5.949999999999999 5.1
537 504 1 1.7 5.1 6.8
538 504 2 1.7 5.949999999999999 7.6499999999999995
539 505 1 2.55 5.1 7.6499999999999995
540 506 1 2.55 5.949999999999999 6.8
541 507 1 1.7 5.1 8.5
542 508 1 1.7 5.949999999999999 9.35
543 509 1 2.55 5.1 9.35
544 510 1 2.55 5.949999999999999 8.5
545 511 1 1.7 5.1 10.2
546 511 2 1.7 5.949999999999999 11.049999999999999
547 512 1 2.55 5.1 11.049999999999999
548 513 1 2.55 5.949999999999999 10.2
549 514 1 1.7 5.1 11.9
550 515 1 1.7 5.949999999999999 12.75
551 516 1 2.55 5.1 12.75
552 517 1 2.55 5.949999999999999 11.9
553 518 1 1.7 5.1 13.6
554 519 1 1.7 5.949999999999999 14.45
555 520 1 2.55 5.1 14.45
556 521 1 2.55 5.949999999999999 13.6
557 522 1 1.7 5.1 15.299999999999999
558 522 2 1.7 5.949999999999999 16.15
559 523 1 2.55 5.1 16.15
560 524 1 2.55 5.949999999999999 15.299999999999999
561 525 1 1.7 6.8 0.0
562 526 1 1.7 7.6499999999999995 0.85
563 527 1 2.55 6.8 0.85
564 528 1 2.55 7.6499999999999995 0.0
565 529 1 1.7 6.8 1.7
566 529 2 1.7 7.6499999999999995 2.55
567 530 1 2.55 6.8 2.55
568 531 1 2.55 7.6499999999999995 1.7
569 532 1 1.7 6.8 3.4
570 533 1 1.7 7.6499999999999995 4.25
571 534 1 2.55 6.8 4.25
572 535 1 2.55 7.6499999999999995 3.4
573 536 1 1.7 6.8 5.1
574 537 1 1.7 7.6499999999999995 5.949999999999999
575 538 1 2.55 6.8 5.949999999999999
576 539 1 2.55 7.6499999999999995 5.1
577 540 1 1.7 6.8 6.8
578 541 1 1.7 7.6499999999999995 7.6499999999999995
579 542 1 2.55 6.8 7.6499999999999995
580 543 1 2.55 7.6499999999999995 6.8
581 544 1 1.7 6.8 8.5
582 545 1 1.7 7.6499999999999995 9.35
583 546 1 2.55 6.8 9.35
584 547 1 2.55 7.6499999999999995 8.5
585 548 1 1.7 6.8 10.2
586 549 1 1.7 7.6499999999999995 11.049999999999999
587 550 1 2.55 6.8 11.049999999999999
588 551 1 2.55 7.6499999999999995 10.2
589 552 1 1.7 6.8 11.9
590 553 1 1.7 7.6499999999999995 12.75
591 554 1 2.55 6.8 12.75
592 555 1 2.55 7.6499999999999995 11.9
593 556 1 1.7 6.8 13.6
594 557 1 1.7 7.6499999999999995 14.45
595 558 1 2.55 6.8 14.45
596 559 1 2.55 7.6499999999999995 13.6
597 560 1 1.7 6.8 15.299999999999999
598 561 1 1.7 7.6499999999999995 16.15
599 562 1 2.55 6.8 16.15
600 563 1 2.55 7.6499999999999995 15.299999999999999
601 564 1 1.7 8.5 0.0
602 565 1 1.7 9.35 0.85
603 566 1 2.55 8.5 0.85
604 567 1 2.55 9.35 0.0
605 568 1 1.7 8.5 1.7
606 568 2 1.7 9.35 2.55
607 569 1 2.55 8.5 2.55
608 570 1 2.55 9.35 1.7
609 571 1 1.7 8.5 3.4
610 571 2 1.7 9.35 4.25
611 572 1 2.55 8.5 4.25
612 573 1 2.55 9.35 3.4
613 574 1 1.7 8.5 5.1
614 575 1 1.7 9.35 5.949999999999999
615 576 1 2.55 8.5 5.949999999999999
616 577 1 2.55 9.35 5.1
617 578 1 1.7 8.5 6.8
618 578 2 1.7 9.35 7.6499999999999995
619 579 1 2.55 8.5 7.6499999999999995
620 580 1 2.55 9.35 6.8
621 581 1 1.7 8.5 8.5
622 581 2 1.7 9.35 9.35
623 582 1 2.55 8.5 9.35
624 583 1 2.55 9.35 8.5
625 584 1 1.7 8.5 10.2
626 585 1 1.7 9.35 11.049999999999999
627 586 1 2.55 8.5 11.049999999999999
628 587 1 2.55 9.35 10.2
629 588 1 1.7 8.5 11.9
630 589 1 1.7 9.35 12.75
631 590 1 2.55 8.5 12.75
632 591 1 2.55 9.35 11.9
633 592 1 1.7 8.5 13.6
634 593 1 1.7 9.35 14.45
635 594 1 2.55 8.5 14.45
636 595 1 2.55 9.35 13.6
637 596 1 1.7 8.5 15.299999999999999
638 596 2 1.7 9.35 16.15
639 597 1 2.55 8.5 16.15
640 598 1 2.55 9.35 15.299999999999999
641 599 1 1.7 10.2 0.0
642 600 1 1.7 11.049999999999999 0.85
643 601 1 2.55 10.2 0.85
644 602 1 2.55 11.049999999999999 0.0
645 603 1 1.7 10.2 1.7
646 604 1 1.7 11.049999999999999 2.55
647 605 1 2.55 10.2 2.55
648 606 1 2.55 11.049999999999999 1.7
649 607 1 1.7 10.2 3.4
650 607 2 1.7 11.049999999999999 4.25
651 608 1 2.55 10.2 4.25
652 609 1 2.55 11.049999999999999 3.4
653 610 1 1.7 10.2 5.1
654 611 1 1.7 11.049999999999999 5.949999999999999
655 612 1 2.55 10.2 5.949999999999999
656 613 1 2.55 11.049999999999999 5.1
657 614 1 1.7 10.2 6.8
658 615 1 1.7 11.049999999999999 7.6499999999999995
659 616 1 2.55 10.2 7.6499999999999995
660 617 1 2.55 11.049999999999999 6.8
661 618 1 1.7 10.2 8.5
662 619 1 1.7 11.049999999999999 9.35
663 620 1 2.55 10.2 9.35
664 621 1 2.55 11.049999999999999 8.5
665 622 1 1.7 10.2 10.2
666 623 1 1.7 11.049999999999999 11.049999999999999
667 624 1 2.55 10.2 11.049999999999999
668 625 1 2.55 11.049999999999999 10.2
669 626 1 1.7 10.2 11.9
670 626 2 1.7 11.049999999999999 12.75
671 627 1 2.55 10.2 12.75
672 628 1 2.55 11.049999999999999 11.9
673 629 1 1.7 10.2 13.6
674 630 1 1.7 11.049999999999999 14.45
675 631 1 2.55 10.2 14.45
676 632 1 2.55 11.049999999999999 13.6
677 633 1 1.7 10.2 15.299999999999999
678 634 1 1.7 11.049999999999999 16.15
679 635 1 2.55 10.2 16.15
680 636 1 2.55 11.049999999999999 15.299999999999999
681 637 1 1.7 11.9 0.0
682 638 1 1.7 12.75 0.85
683 639 1 2.55 11.9 0.85
684 640 1 2.55 12.75 0.0
685 641 1 1.7 11.9 1.7
686 642 1 1.7 12.75 2.55
687 643 1 2.55 11.9 2.55
688 644 1 2.55 12.75 1.7
689 645 1 1.7 11.9 3.4
690 645 2 1.7 12.75 4.25
691 646 1 2.55 11.9 4.25
692 647 1 2.55 12.75 3.4
693 648 1 1.7 11.9 5.1
694 649 1 1.7 12.75 5.949999999999999
695 650 1 2.55 11.9 5.949999999999999
696 651 1 2.55 12.75 5.1
697 652 1 1.7 11.9 6.8
698 652 2 1.7 12.75 7.6499999999999995
699 653 1 2.55 11.9 7.6499999999999995
700 654 1 2.55 12.75 6.8
701 655 1 1.7 11.9 8.5
702 655 2 1.7 12.75 9.35
703 656 1 2.55 11.9 9.35
704 657 1 2.55 12.75 8.5
705 658 1 1.7 11.9 10.2
706 659 1 1.7 12.75 11.049999999999999
707 660 1 2.55 11.9 11.049999999999999
708 661 1 2.55 12.75 10.2
709 662 1 1.7 11.9 11.9
710 663 1 1.7 12.75 12.75
711 664 1 2.55 11.9 12.75
712 665 1 2.55 12.75 11.9
713 666 1 1.7 11.9 13.6
714 667 1 1.7 12.75 14.45
715 668 1 2.55 11.9 14.45
716 669 1 2.55 12.75 13.6
717 670 1 1.7 11.9 15.299999999999999
718 670 2 1.7 12.75 16.15
719 671 1 2.55 11.9 16.15
720 672 1 2.55 12.75 15.299999999999999
721 673 1 1.7 13.6 0.0
722 674 1 1.7 14.45 0.85
723 675 1 2.55 13.6 0.85
724 676 1 2.55 14.45 0.0
725 677 1 1.7 13.6 1.7
726 677 2 1.7 14.45 2.55
727 678 1 2.55 13.6 2.55
728 679 1 2.55 14.45 1.7
729 680 1 1.7 13.6 3.4
730 681 1 1.7 14.45 4.25
731 682 1 2.55 13.6 4.25
732 683 1 2.55 14.45 3.4
733 684 1 1.7 13.6 5.1
734 685 1 1.7 14.45 5.949999999999999
735 686 1 2.55 13.6 5.949999999999999
736 687 1 2.55 14.45 5.1
737 688 1 1.7 13.6 6.8
738 689 1 1.7 14.45 7.6499999999999995
739 690 1 2.55 13.6 7.6499999999999995
740 691 1 2.55 14.45 6.8
741 692 1 1.7 13.6 8.5
742 692 2 1.7 14.45 9.35
743 693 1 2.55 13.6 9.35
744 694 1 2.55 14.45 8.5
745 695 1 1.7 13.6 10.2
746 695 2 1.7 14.45 11.049999999999999
747 696 1 2.55 13.6 11.049999999999999
748 697 1 2.55 14.45 10.2
749 698 1 1.7 13.6 11.9
750 699 1 1.7 14.45 12.75
751 700 1 2.55 13.6 12.75
752 701 1 2.55 14.45 11.9
753 702 1 1.7 13.6 13.6
754 703 1 1.7 14.45 14.45
755 704 1 2.55 13.6 14.45
756 705 1 2.55 14.45 13.6
757 706 1 1.7 13.6 15.299999999999999
758 707 1 1.7 14.45 16.15
759 708 1 2.55 13.6 16.15
760 709 1 2.55 14.45 15.299999999999999
761 710 1 1.7 15.299999999999999 0.0
762 711 1 1.7 16.15 0.85
763 712 1 2.55 15.299999999999999 0.85
764 713 1 2.55 16.15 0.0
765 714 1 1.7 15.299999999999999 1.7
766 714 2 1.7 16.15 2.55
767 715 1 2.55 15.299999999999999 2.55
768 716 1 2.55 16.15 1.7
769 717 1 1.7 15.299999999999999 3.4
770 718 1 1.7 16.15 4.25
771 719 1 2.55 15.299999999999999 4.25
772 720 1 2.55 16.15 3.4
773 721 1 1.7 15.299999999999999 5.1
774 722 1 1.7 16.15 5.949999999999999
775 723 1 2.55 15.299999999999999 5.949999999999999
776 724 1 2.55 16.15 5.1
777 725 1 1.7 15.299999999999999 6.8
778 725 2 1.7 16.15 7.6499999999999995
779 726 1 2.55 15.299999999999999 7.6499999999999995
780 727 1 2.55 16.15 6.8
781 728 1 1.7 15.299999999999999 8.5
782 729 1 1.7 16.15 9.35
783 730 1 2.55 15.299999999999999 9.35
784 731 1 2.55 16.15 8.5
785 732 1 1.7 15.299999999999999 10.2
786 733 1 1.7 16.15 11.049999999999999
787 734 1 2.55 15.299999999999999 11.049999999999999
788 735 1 2.55 16.15 10.2
789 736 1 1.7 15.299999999999999 11.9
790 736 2 1.7 16.15 12.75
791 737 1 2.55 15.299999999999999 12.75
792 738 1 2.55 16.15 11.9
793 739 1 1.7 15.299999999999999 13.6
794 740 1 1.7 16.15 14.45
795 741 1 2.55 15.299999999999999 14.45
796 742 1 2.55 16.15 13.6
797 743 1 1.7 15.299999999999999 15.299999999999999
798 744 1 1.7 16.15 16.15
799 745 1 2.55 15.299999999999999 16.15
800 746 1 2.55 16.15 15.299999999999999
801 747 1 3.4 0.0 0.0
802 747 2 3.4 0.85 0.85
803 748 1 4.25 0.0 0.85
804 749 1 4.25 0.85 0.0
805 750 1 3.4 0.0 1.7
806 750 2 3.4 0.85 2.55
807 751 1 4.25 0.0 2.55
808 752 1 4.25 0.85 1.7
809 753 1 3.4 0.0 3.4
810 754 1 3.4 0.85 4.25
811 755 1 4.25 0.0 4.25
812 756 1 4.25 0.85 3.4
813 757 1 3.4 0.0 5.1
814 757 2 3.4 0.85 5.949999999999999
815 758 1 4.25 0.0 5.949999999999999
816 759 1 4.25 0.85 5.1
817 760 1 3.4 0.0 6.8
818 761 1 3.4 0.85 7.6499999999999995
819 762 1 4.25 0.0 7.6499999999999995
820 763 1 4.25 0.85 6.8
821 764 1 3.4 0.0 8.5
822 765 1 3.4 0.85 9.35
823 766 1 4.25 0.0 9.35
824 767 1 4.25 0.85 8.5
825 768 1 3.4 0.0 10.2
826 769 1 3.4 0.85 11.049999999999999
827 770 1 4.25 0.0 11.049999999999999
828 771 1 4.25 0.85 10.2
829 772 1 3.4 0.0 11.9
830 773 1 3.4 0.85 12.75
831 774 1 4.25 0.0 12.75
832 775 1 4.25 0.85 11.9
833 776 1 3.4 0.0 13.6
834 777 1 3.4 0.85 14.45
835 778 1 4.25 0.0 14.45
836 779 1 4.25 0.85 13.6
837 780 1 3.4 0.0 15.299999999999999
838 781 1 3.4 0.85 16.15
839 782 1 4.25 0.0 16.15
840 783 1 4.25 0.85 15.299999999999999
841 784 1 3.4 1.7 0.0
842 784 2 3.4 2.55 0.85
843 785 1 4.25 1.7 0.85
844 786 1 4.25 2.55 0.0
845 787 1 3.4 1.7 1.7
846 788 1 3.4 2.55 2.55
847 789 1 4.25 1.7 2.55
848 790 1 4.25 2.55 1.7
849 791 1 3.4 1.7 3.4
850 792 1 3.4 2.55 4.25
851 793 1 4.25 1.7 4.25
852 794 1 4.25 2.55 3.4
853 795 1 3.4 1.7 5.1
854 795 2 3.4 2.55 5.949999999999999
855 796 1 4.25 1.7 5.949999999999999
856 797 1 4.25 2.55 5.1
857 798 1 3.4 1.7 6.8
858 799 1 3.4 2.55 7.6499999999999995
859 800 1 4.25 1.7 7.6499999999999995
860 801 1 4.25 2.55 6.8
861 802 1 3.4 1.7 8.5
862 803 1 3.4 2.55 9.35
863 804 1 4.25 1.7 9.35
864 805 1 4.25 2.55 8.5
865 806 1 3.4 1.7 10.2
866 807 1 3.4 2.55 11.049999999999999
867 808 1 4.25 1.7 11.049999999999999
868 809 1 4.25 2.55 10.2
869 810 1 3.4 1.7 11.9
870 810 2 3.4 2.55 12.75
871 811 1 4.25 1.7 12.75
872 812 1 4.25 2.55 11.9
873 813 1 3.4 1.7 13.6
874 814 1 3.4 2.55 14.45
875 815 1 4.25 1.7 14.45
876 816 1 4.25 2.55 13.6
877 817 1 3.4 1.7 15.299999999999999
878 818 1 3.4 2.55 16.15
879 819 1 4.25 1.7 16.15
880 820 1 4.25 2.55 15.299999999999999
881 821 1 3.4 3.4 0.0
882 822 1 3.4 4.25 0.85
883 823 1 4.25 3.4 0.85
884 824 1 4.25 4.25 0.0
885 825 1 3.4 3.4 1.7
886 826 1 3.4 4.25 2.55
887 827 1 4.25 3.4 2.55
888 828 1 4.25 4.25 1.7
889 829 1 3.4 3.4 3.4
890 830 1 3.4 4.25 4.25
891 831 1 4.25 3.4 4.25
892 832 1 4.25 4.25 3.4
893 833 1 3.4 3.4 5.1
894 834 1 3.4 4.25 5.949999999999999
895 835 1 4.25 3.4 5.949999999999999
896 836 1 4.25 4.25 5.1
897 837 1 3.4 3.4 6.8
898 838 1 3.4 4.25 7.6499999999999995
899 839 1 4.25 3.4 7.6499999999999995
900 840 1 4.25 4.25 6.8
901 841 1 3.4 3.4 8.5
902 842 1 3.4 4.25 9.35
903 843 1 4.25 3.4 9.35
904 844 1 4.25 4.25 8.5
905 845 1 3.4 3.4 10.2
906 846 1 3.4 4.25 11.049999999999999
907 847 1 4.25 3.4 11.049999999999999
908 848 1 4.25 4.25 10.2
909 849 1 3.4 3.4 11.9
910 850 1 3.4 4.25 12.75
911 851 1 4.25 3.4 12.75
912 852 1 4.25 4.25 11.9
913 853 1 3.4 3.4 13.6
914 853 2 3.4 4.25 14.45
915 854 1 4.25 3.4 14.45
916 855 1 4.25 4.25 13.6
917 856 1 3.4 3.4 15.299999999999999
918 856 2 3.4 4.25 16.15
919 857 1 4.25 3.4 16.15
920 858 1 4.25 4.25 15.299999999999999
921 859 1 3.4 5.1 0.0
922 860 1 3.4 5.949999999999999 0.85
923 861 1 4.25 5.1 0.85
924 862 1 4.25 5.949999999999999 0.0
925 863 1 3.4 5.1 1.7
926 863 2 3.4 5.949999999999999 2.55
927 864 1 4.25 5.1 2.55
928 865 1 4.25 5.949999999999999 1.7
929 866 1 3.4 5.1 3.4
930 867 1 3.4 5.949999999999999 4.25
931 868 1 4.25 5.1 4.25
932 869 1 4.25 5.949999999999999 3.4
933 870 1 3.4 5.1 5.1
934 870 2 3.4 5.949999999999999 5.949999999999999
935 871 1 4.25 5.1 5.949999999999999
936 872 1 4.25 5.949999999999999 5.1
937 873 1 3.4 5.1 6.8
938 873 2 3.4 5.949999999999999 7.6499999999999995
939 874 1 4.25 5.1 7.6499999999999995
940 875 1 4.25 5.949999999999999 6.8
941 876 1 3.4 5.1 8.5
942 877 1 3.4 5.949999999999999 9.35
943 878 1 4.25 5.1 9.35
944 879 1 4.25 5.949999999999999 8.5
945 880 1 3.4 5.1 10.2
946 881 1 3.4 5.949999999999999 11.049999999999999
947 882 1 4.25 5.1 11.049999999999999
948 883 1 4.25 5.949999999999999 10.2
949 884 1 3.4 5.1 11.9
950 885 1 3.4 5.949999999999999 12.75
951 886 1 4.25 5.1 12.75
952 887 1 4.25 5.949999999999999 11.9
953 888 1 3.4 5.1 13.6
954 889 1 3.4 5.949999999999999 14.45
955 890 1 4.25 5.1 14.45
956 891 1 4.25 5.949999999999999 13.6
957 892 1 3.4 5.1 15.299999999999999
958 893 1 3.4 5.949999999999999 16.15
959 894 1 4.25 5.1 16.15
960 895 1 4.25 5.949999999999999 15.299999999999999
961 896 1 3.4 6.8 0.0
962 897 1 3.4 7.6499999999999995 0.85
963 898 1 4.25 6.8 0.85
964 899 1 4.25 7.6499999999999995 0.0
965 900 1 3.4 6.8 1.7
966 900 2 3.4 7.6499999999999995 2.55
967 901 1 4.25 6.8 2.55
968 902 1 4.25 7.6499999999999995 1.7
969 903 1 3.4 6.8 3.4
970 903 2 3.4 7.6499999999999995 4.25
971 904 1 4.25 6.8 4.25
972 905 1 4.25 7.6499999999999995 3.4
973 906 1 3.4 6.8 5.1
974 907 1 3.4 7.6499999999999995 5.949999999999999
975 908 1 4.25 6.8 5.949999999999999
976 909 1 4.25 7.6499999999999995 5.1
977 910 1 3.4 6.8 6.8
978 911 1 3.4 7.6499999999999995 7.6499999999999995
979 912 1 4.25 6.8 7.6499999999999995
980 913 1 4.25 7.6499999999999995 6.8
981 914 1 3.4 6.8 8.5
982 915 1 3.4 7.6499999999999995 9.35
983 916 1 4.25 6.8 9.35
984 917 1 4.25 7.6499999999999995 8.5
985 918 1 3.4 6.8 10.2
986 919 1 3.4 7.6499999999999995 11.049999999999999
987 920 1 4.25 6.8 11.049999999999999
988 921 1 4.25 7.6499999999999995 10.2
989 922 1 3.4 6.8 11.9
990 923 1 3.4 7.6499999999999995 12.75
991 924 1 4.25 6.8 12.75
992 925 1 4.25 7.6499999999999995 11.9
993 926 1 3.4 6.8 13.6
994 927 1 3.4 7.6499999999999995 14.45
995 928 1 4.25 6.8 14.45
996 929 1 4.25 7.6499999999999995 13.6
997 930 1 3.4 6.8 15.299999999999999
998 931 1 3.4 7.6499999999999995 16.15
999 932 1 4.25 6.8 16.15
1000 933 1 4.25 7.6499999999999995 15.299999999999999
1001 934 1 3.4 8.5 0.0
1002 935 1 3.4 9.35 0.85
1003 936 1 4.25 8.5 0.85
1004 937 1 4.25 9.35 0.0
1005 938 1 3.4 8.5 1.7
1006 938 2 3.4 9.35 2.55
1007 939 1 4.25 8.5 2.55
1008 940 1 4.25 9.35 1.7
1009 941 1 3.4 8.5 3.4
1010 942 1 3.4 9.35 4.25
1011 943 1 4.25 8.5 4.25
1012 944 1 4.25 9.35 3.4
1013 945 1 3.4 8.5 5.1
1014 945 2 3.4 9.35 5.949999999999999
1015 946 1 4.25 8.5 5.949999999999999
1016 947 1 4.25 9.35 5.1
1017 948 1 3.4 8.5 6.8